 Entering Gaussian System, Link 0=g16
 Input=DDL-LR-0.gjf
 Output=DDL-LR-0.log
 Initial command:
 /data/home/wyx/g16/l1.exe "/scr/tmp/wyx/13119/Gau-1507632.inp" -scrdir="/scr/tmp/wyx/13119/"
 Entering Link 1 = /data/home/wyx/g16/l1.exe PID=   1507633.
  
 Copyright (c) 1988,1990,1992,1993,1995,1998,2003,2009,2016,
            Gaussian, Inc.  All Rights Reserved.
  
 This is part of the Gaussian(R) 16 program.  It is based on
 the Gaussian(R) 09 system (copyright 2009, Gaussian, Inc.),
 the Gaussian(R) 03 system (copyright 2003, Gaussian, Inc.),
 the Gaussian(R) 98 system (copyright 1998, Gaussian, Inc.),
 the Gaussian(R) 94 system (copyright 1995, Gaussian, Inc.),
 the Gaussian 92(TM) system (copyright 1992, Gaussian, Inc.),
 the Gaussian 90(TM) system (copyright 1990, Gaussian, Inc.),
 the Gaussian 88(TM) system (copyright 1988, Gaussian, Inc.),
 the Gaussian 86(TM) system (copyright 1986, Carnegie Mellon
 University), and the Gaussian 82(TM) system (copyright 1983,
 Carnegie Mellon University). Gaussian is a federally registered
 trademark of Gaussian, Inc.
  
 This software contains proprietary and confidential information,
 including trade secrets, belonging to Gaussian, Inc.
  
 This software is provided under written license and may be
 used, copied, transmitted, or stored only in accord with that
 written license.
  
 The following legend is applicable only to US Government
 contracts under FAR:
  
                    RESTRICTED RIGHTS LEGEND
  
 Use, reproduction and disclosure by the US Government is
 subject to restrictions as set forth in subparagraphs (a)
 and (c) of the Commercial Computer Software - Restricted
 Rights clause in FAR 52.227-19.
  
 Gaussian, Inc.
 340 Quinnipiac St., Bldg. 40, Wallingford CT 06492
  
  
 ---------------------------------------------------------------
 Warning -- This program may not be used in any manner that
 competes with the business of Gaussian, Inc. or will provide
 assistance to any competitor of Gaussian, Inc.  The licensee
 of this program is prohibited from giving any competitor of
 Gaussian, Inc. access to this program.  By using this program,
 the user acknowledges that Gaussian, Inc. is engaged in the
 business of creating and licensing software in the field of
 computational chemistry and represents and warrants to the
 licensee that it is not a competitor of Gaussian, Inc. and that
 it will not use this program in any manner prohibited above.
 ---------------------------------------------------------------
  

 Cite this work as:
 Gaussian 16, Revision A.03,
 M. J. Frisch, G. W. Trucks, H. B. Schlegel, G. E. Scuseria, 
 M. A. Robb, J. R. Cheeseman, G. Scalmani, V. Barone, 
 G. A. Petersson, H. Nakatsuji, X. Li, M. Caricato, A. V. Marenich, 
 J. Bloino, B. G. Janesko, R. Gomperts, B. Mennucci, H. P. Hratchian, 
 J. V. Ortiz, A. F. Izmaylov, J. L. Sonnenberg, D. Williams-Young, 
 F. Ding, F. Lipparini, F. Egidi, J. Goings, B. Peng, A. Petrone, 
 T. Henderson, D. Ranasinghe, V. G. Zakrzewski, J. Gao, N. Rega, 
 G. Zheng, W. Liang, M. Hada, M. Ehara, K. Toyota, R. Fukuda, 
 J. Hasegawa, M. Ishida, T. Nakajima, Y. Honda, O. Kitao, H. Nakai, 
 T. Vreven, K. Throssell, J. A. Montgomery, Jr., J. E. Peralta, 
 F. Ogliaro, M. J. Bearpark, J. J. Heyd, E. N. Brothers, K. N. Kudin, 
 V. N. Staroverov, T. A. Keith, R. Kobayashi, J. Normand, 
 K. Raghavachari, A. P. Rendell, J. C. Burant, S. S. Iyengar, 
 J. Tomasi, M. Cossi, J. M. Millam, M. Klene, C. Adamo, R. Cammi, 
 J. W. Ochterski, R. L. Martin, K. Morokuma, O. Farkas, 
 J. B. Foresman, and D. J. Fox, Gaussian, Inc., Wallingford CT, 2016.
 
 ******************************************
 Gaussian 16:  ES64L-G16RevA.03 25-Dec-2016
                24-Jan-2026 
 ******************************************
 %nprocshared=16
 Will use up to   16 processors via shared memory.
 %mem=16GB
 %chk=DDL-LR-0.chk
 --------------------------------------------------------------------
 #p CAM-B3LYP TZVP em=gd3bj td(nstates=6,root=1) scrf=(Solvent=Water)
 --------------------------------------------------------------------
 1/38=1,172=1/1;
 2/12=2,17=6,18=5,40=1/2;
 3/5=19,7=101,11=9,25=1,30=1,70=2201,72=1,74=-40,124=41/1,2,3,8;
 4//1;
 5/5=2,38=5,53=1/2;
 8/6=1,10=1,107=1,108=6/1;
 9/8=1,41=6,42=1,70=2/14;
 6/7=2,8=2,9=2,10=2/1;
 99/5=1,9=1/99;
 Leave Link    1 at Sat Jan 24 15:22:13 2026, MaxMem=  2147483648 cpu:               0.4 elap:               0.1
 (Enter /data/home/wyx/g16/l101.exe)
 -------------------
 Title Card Required
 -------------------
 Symbolic Z-matrix:
 Charge =  0 Multiplicity = 1
 O                     2.76802  -1.54978   0.65974 
 O                    -3.39628  -1.65587  -0.68007 
 N                    -0.65063   1.52512  -0.11119 
 H                    -0.96239   2.47812  -0.20108 
 C                    -1.2366   -0.77932  -0.17648 
 C                     0.67033   1.31873   0.12776 
 C                    -1.60734   0.5338   -0.30205 
 C                    -2.14406  -1.8364   -0.36288 
 C                     0.1855   -1.13612   0.19645 
 H                     0.19975  -1.65295   1.16131 
 H                     0.58516  -1.86099  -0.51556 
 C                     1.13633   0.0416    0.25459 
 C                     2.51301  -0.35505   0.48264 
 C                    -2.95804   1.06794  -0.6231 
 H                    -3.35407   1.66939   0.20078 
 H                    -2.933     1.70018  -1.51527 
 H                    -3.66993   0.26263  -0.81004 
 C                    -1.83916  -3.30525  -0.21262 
 H                    -2.48229  -3.75282   0.54872 
 H                    -2.01864  -3.83318  -1.15222 
 H                    -0.80126  -3.43502   0.07847 
 C                     3.67356   0.61311   0.49916 
 H                     3.66559   1.29344  -0.34896 
 H                     3.66912   1.21281   1.41002 
 H                     4.59052   0.02925   0.47994 
 C                     1.45275   2.5971    0.21411 
 H                     2.10509   2.61875   1.08084 
 H                     2.06475   2.74597  -0.67492 
 H                     0.7742    3.44482   0.2919 
 
 ITRead=  0  0  0  0  0  0  0  0  0  0  0  0  0  0  0  0  0  0  0  0
 ITRead=  0  0  0  0  0  0  0  0  0
 MicOpt= -1 -1 -1 -1 -1 -1 -1 -1 -1 -1 -1 -1 -1 -1 -1 -1 -1 -1 -1 -1
 MicOpt= -1 -1 -1 -1 -1 -1 -1 -1 -1
 NAtoms=     29 NQM=       29 NQMF=       0 NMMI=      0 NMMIF=      0
                NMic=       0 NMicF=      0.
                    Isotopes and Nuclear Properties:
 (Nuclear quadrupole moments (NQMom) in fm**2, nuclear magnetic moments (NMagM)
  in nuclear magnetons)

  Atom         1           2           3           4           5           6           7           8           9          10
 IAtWgt=          16          16          14           1          12          12          12          12          12           1
 AtmWgt=  15.9949146  15.9949146  14.0030740   1.0078250  12.0000000  12.0000000  12.0000000  12.0000000  12.0000000   1.0078250
 NucSpn=           0           0           2           1           0           0           0           0           0           1
 AtZEff=  -0.0000000  -0.0000000  -0.0000000  -0.0000000  -0.0000000  -0.0000000  -0.0000000  -0.0000000  -0.0000000  -0.0000000
 NQMom=    0.0000000   0.0000000   2.0440000   0.0000000   0.0000000   0.0000000   0.0000000   0.0000000   0.0000000   0.0000000
 NMagM=    0.0000000   0.0000000   0.4037610   2.7928460   0.0000000   0.0000000   0.0000000   0.0000000   0.0000000   2.7928460
 AtZNuc=   8.0000000   8.0000000   7.0000000   1.0000000   6.0000000   6.0000000   6.0000000   6.0000000   6.0000000   1.0000000

  Atom        11          12          13          14          15          16          17          18          19          20
 IAtWgt=           1          12          12          12           1           1           1          12           1           1
 AtmWgt=   1.0078250  12.0000000  12.0000000  12.0000000   1.0078250   1.0078250   1.0078250  12.0000000   1.0078250   1.0078250
 NucSpn=           1           0           0           0           1           1           1           0           1           1
 AtZEff=  -0.0000000  -0.0000000  -0.0000000  -0.0000000  -0.0000000  -0.0000000  -0.0000000  -0.0000000  -0.0000000  -0.0000000
 NQMom=    0.0000000   0.0000000   0.0000000   0.0000000   0.0000000   0.0000000   0.0000000   0.0000000   0.0000000   0.0000000
 NMagM=    2.7928460   0.0000000   0.0000000   0.0000000   2.7928460   2.7928460   2.7928460   0.0000000   2.7928460   2.7928460
 AtZNuc=   1.0000000   6.0000000   6.0000000   6.0000000   1.0000000   1.0000000   1.0000000   6.0000000   1.0000000   1.0000000

  Atom        21          22          23          24          25          26          27          28          29
 IAtWgt=           1          12           1           1           1          12           1           1           1
 AtmWgt=   1.0078250  12.0000000   1.0078250   1.0078250   1.0078250  12.0000000   1.0078250   1.0078250   1.0078250
 NucSpn=           1           0           1           1           1           0           1           1           1
 AtZEff=  -0.0000000  -0.0000000  -0.0000000  -0.0000000  -0.0000000  -0.0000000  -0.0000000  -0.0000000  -0.0000000
 NQMom=    0.0000000   0.0000000   0.0000000   0.0000000   0.0000000   0.0000000   0.0000000   0.0000000   0.0000000
 NMagM=    2.7928460   0.0000000   2.7928460   2.7928460   2.7928460   0.0000000   2.7928460   2.7928460   2.7928460
 AtZNuc=   1.0000000   6.0000000   1.0000000   1.0000000   1.0000000   6.0000000   1.0000000   1.0000000   1.0000000
 Leave Link  101 at Sat Jan 24 15:22:13 2026, MaxMem=  2147483648 cpu:               0.8 elap:               0.1
 (Enter /data/home/wyx/g16/l202.exe)
                          Input orientation:                          
 ---------------------------------------------------------------------
 Center     Atomic      Atomic             Coordinates (Angstroms)
 Number     Number       Type             X           Y           Z
 ---------------------------------------------------------------------
      1          8           0        2.768019   -1.549781    0.659742
      2          8           0       -3.396275   -1.655867   -0.680071
      3          7           0       -0.650631    1.525121   -0.111194
      4          1           0       -0.962393    2.478124   -0.201082
      5          6           0       -1.236599   -0.779324   -0.176477
      6          6           0        0.670327    1.318725    0.127760
      7          6           0       -1.607335    0.533797   -0.302054
      8          6           0       -2.144057   -1.836397   -0.362876
      9          6           0        0.185498   -1.136119    0.196453
     10          1           0        0.199747   -1.652947    1.161306
     11          1           0        0.585158   -1.860989   -0.515561
     12          6           0        1.136326    0.041598    0.254590
     13          6           0        2.513005   -0.355051    0.482639
     14          6           0       -2.958043    1.067937   -0.623098
     15          1           0       -3.354071    1.669388    0.200783
     16          1           0       -2.932998    1.700178   -1.515270
     17          1           0       -3.669929    0.262626   -0.810041
     18          6           0       -1.839155   -3.305249   -0.212616
     19          1           0       -2.482293   -3.752816    0.548718
     20          1           0       -2.018635   -3.833184   -1.152220
     21          1           0       -0.801260   -3.435018    0.078473
     22          6           0        3.673564    0.613108    0.499163
     23          1           0        3.665590    1.293443   -0.348960
     24          1           0        3.669122    1.212807    1.410019
     25          1           0        4.590522    0.029248    0.479943
     26          6           0        1.452750    2.597098    0.214108
     27          1           0        2.105088    2.618751    1.080841
     28          1           0        2.064749    2.745969   -0.674916
     29          1           0        0.774195    3.444823    0.291904
 ---------------------------------------------------------------------
                    Distance matrix (angstroms):
                    1          2          3          4          5
     1  O    0.000000
     2  O    6.309110   0.000000
     3  N    4.662245   4.240385   0.000000
     4  H    5.557069   4.821109   1.006722   0.000000
     5  C    4.162911   2.384562   2.378673   3.269061   0.000000
     6  C    3.593278   5.102748   1.358171   2.029315   2.851445
     7  C    4.940655   2.852688   1.390839   2.050988   1.370220
     8  C    5.025573   1.304321   3.686932   4.476338   1.405570
     9  C    2.656157   3.723913   2.806413   3.812931   1.512858
    10  H    2.618822   4.040056   3.527395   4.502490   2.148481
    11  H    2.498614   3.990106   3.627179   4.617544   2.145641
    12  C    2.314964   4.929447   2.351139   3.247910   2.547647
    13  C    1.234414   6.161461   3.727771   4.535719   3.830662
    14  C    6.425411   2.759420   2.407325   2.479787   2.564218
    15  H    6.932076   3.440204   2.725203   2.556496   3.259172
    16  H    6.913357   3.489301   2.685381   2.493105   3.289083
    17  H    6.847792   1.942265   3.346407   3.551058   2.721793
    18  C    5.006868   2.315944   4.975475   5.849466   2.597052
    19  H    5.694863   2.596629   5.625575   6.457314   3.304439
    20  H    5.604390   2.619451   5.627309   6.469383   3.299957
    21  H    4.078204   3.236490   4.966049   5.921939   2.703189
    22  C    2.350295   7.518076   4.461274   5.045862   5.148306
    23  H    3.147544   7.660157   4.328969   4.779494   5.325183
    24  H    3.001132   7.906807   4.590413   5.064346   5.527355
    25  H    2.418094   8.244645   5.482405   6.107017   5.919461
    26  C    4.373229   6.511552   2.383100   2.453457   4.334210
    27  H    4.241870   7.185970   3.195459   3.327543   4.928959
    28  H    4.552952   7.014198   3.030106   3.075687   4.855413
    29  H    5.390427   6.659924   2.424432   2.047750   4.701712
                    6          7          8          9         10
     6  C    0.000000
     7  C    2.447161   0.000000
     8  C    4.256322   2.430965   0.000000
     9  C    2.503205   2.500276   2.496010   0.000000
    10  H    3.181273   3.191993   2.801821   1.094649   0.000000
    11  H    3.245258   3.253861   2.733593   1.091846   1.733120
    12  C    1.365392   2.842497   3.830019   1.514751   2.137942
    13  C    2.514543   4.287540   4.959587   2.471691   2.737935
    14  C    3.713725   1.487544   3.027449   3.925733   4.534197
    15  H    4.040306   2.143245   3.751316   4.516574   4.958844
    16  H    3.978568   2.142363   3.802342   4.549681   5.312400
    17  H    4.564278   2.141466   2.633275   4.223013   4.746580
    18  C    5.272048   3.847079   1.507670   2.995277   2.962243
    19  H    5.986380   4.456951   2.148969   3.753439   3.460932
    20  H    5.950717   4.467938   2.150803   3.735141   3.876475
    21  H    4.976552   4.067684   2.133889   2.504505   2.313076
    22  C    3.107293   5.341922   6.370863   3.913826   4.200100
    23  H    3.033068   5.327570   6.599098   4.279169   4.793139
    24  H    3.263155   5.588671   6.799548   4.373309   4.506769
    25  H    4.141825   6.267338   7.038859   4.565379   4.751099
    26  C    1.501293   3.726628   5.738102   3.942480   4.531013
    27  H    2.158001   4.476775   6.323598   4.308830   4.678055
    28  H    2.150750   4.303130   6.229727   4.400168   5.118633
    29  H    2.134953   3.807695   6.069285   4.619600   5.203183
                   11         12         13         14         15
    11  H    0.000000
    12  C    2.125266   0.000000
    13  C    2.642129   1.450718   0.000000
    14  C    4.598309   4.311330   5.760201   0.000000
    15  H    5.337999   4.776637   6.212920   1.094240   0.000000
    16  H    5.104777   4.737372   6.154231   1.093767   1.767226
    17  H    4.764685   4.927715   6.346749   1.090988   1.760827
    18  C    2.838125   4.502572   5.303616   4.532677   5.216597
    19  H    3.757786   5.251523   6.041703   4.983889   5.502849
    20  H    3.327856   5.191034   5.941880   5.018311   5.821710
    21  H    2.180046   3.983982   4.542455   5.041876   5.708482
    22  C    4.085226   2.612282   1.511457   6.741257   7.112834
    23  H    4.412172   2.885925   2.176589   6.633138   7.051184
    24  H    4.760978   3.020232   2.157503   6.933532   7.141145
    25  H    4.539489   3.461561   2.112764   7.699117   8.116930
    26  C    4.599964   2.575334   3.148243   4.742820   4.895544
    27  H    4.992670   2.874527   3.060676   5.562709   5.610544
    28  H    4.841347   3.006588   3.340238   5.295934   5.593701
    29  H    5.370231   3.422641   4.183167   4.518453   4.494781
                   16         17         18         19         20
    16  H    0.000000
    17  H    1.762660   0.000000
    18  C    5.286558   4.054427   0.000000
    19  H    5.847933   4.402327   1.092507   0.000000
    20  H    5.620139   4.429392   1.092604   1.764831   0.000000
    21  H    5.783992   4.763538   1.085725   1.774260   1.776272
    22  C    6.991875   7.467512   6.800752   7.547074   7.409299
    23  H    6.713202   7.421928   7.174174   8.004188   7.696619
    24  H    7.237599   7.726136   7.306633   7.952305   8.023570
    25  H    7.960919   8.363825   7.275937   8.020814   7.827087
    26  C    4.798958   5.721930   6.771738   7.477830   7.434103
    27  H    5.741592   6.517483   7.233523   7.869186   7.976159
    28  H    5.174683   6.250743   7.216053   8.025402   7.758034
    29  H    4.478051   5.575921   7.255867   7.904219   7.928101
                   21         22         23         24         25
    21  H    0.000000
    22  C    6.048831   0.000000
    23  H    6.518726   1.087305   0.000000
    24  H    6.584801   1.090558   1.760830   0.000000
    25  H    6.421342   1.087232   1.772221   1.764888   0.000000
    26  C    6.440915   2.991569   2.629301   2.873807   4.063267
    27  H    6.789677   2.611718   2.497186   2.128671   3.639229
    28  H    6.854648   2.918192   2.186040   3.044922   3.885074
    29  H    7.061149   4.058067   3.660506   3.822653   5.125023
                   26         27         28         29
    26  C    0.000000
    27  H    1.085007   0.000000
    28  H    1.089527   1.760822   0.000000
    29  H    1.088635   1.753879   1.757461   0.000000
 Stoichiometry    C11H15NO2
 Framework group  C1[X(C11H15NO2)]
 Deg. of freedom    81
 Full point group                 C1      NOp   1
 Largest Abelian subgroup         C1      NOp   1
 Largest concise Abelian subgroup C1      NOp   1
                         Standard orientation:                         
 ---------------------------------------------------------------------
 Center     Atomic      Atomic             Coordinates (Angstroms)
 Number     Number       Type             X           Y           Z
 ---------------------------------------------------------------------
      1          8           0       -2.254845   -2.314804   -0.071962
      2          8           0        3.677334   -0.174232    0.107172
      3          7           0       -0.069709    1.803644   -0.061779
      4          1           0       -0.105377    2.809723   -0.066634
      5          6           0        1.296388   -0.143187   -0.020380
      6          6           0       -1.252106    1.135616   -0.044352
      7          6           0        1.193307    1.223137   -0.014493
      8          6           0        2.536585   -0.802408    0.034083
      9          6           0        0.052572   -0.999686   -0.110214
     10          1           0        0.067813   -1.583796   -1.035870
     11          1           0        0.054961   -1.742600    0.689911
     12          6           0       -1.249745   -0.229743   -0.035182
     13          6           0       -2.414394   -1.093514    0.010339
     14          6           0        2.300256    2.215800    0.031001
     15          1           0        2.320285    2.830976   -0.873719
     16          1           0        2.196311    2.887090    0.888260
     17          1           0        3.271217    1.725092    0.112820
     18          6           0        2.751499   -2.294236   -0.002432
     19          1           0        3.380566   -2.568718   -0.852436
     20          1           0        3.254278   -2.632541    0.906714
     21          1           0        1.794449   -2.799146   -0.091428
     22          6           0       -3.829120   -0.586910    0.172837
     23          1           0       -3.926721    0.136211    0.978940
     24          1           0       -4.183224   -0.115835   -0.744777
     25          1           0       -4.464287   -1.443900    0.383087
     26          6           0       -2.439398    2.054346   -0.031926
     27          1           0       -3.187001    1.765239   -0.763191
     28          1           0       -2.913587    2.073070    0.948820
     29          1           0       -2.126688    3.070627   -0.265403
 ---------------------------------------------------------------------
 Rotational constants (GHZ):           1.1011253           0.4796176           0.3380535
 Leave Link  202 at Sat Jan 24 15:22:13 2026, MaxMem=  2147483648 cpu:               0.0 elap:               0.0
 (Enter /data/home/wyx/g16/l301.exe)
 Standard basis: TZVP (5D, 7F)
 Ernie: Thresh=  0.10000D-02 Tol=  0.10000D-05 Strict=F.
 There are   370 symmetry adapted cartesian basis functions of A   symmetry.
 There are   356 symmetry adapted basis functions of A   symmetry.
   356 basis functions,   610 primitive gaussians,   370 cartesian basis functions
    52 alpha electrons       52 beta electrons
       nuclear repulsion energy       897.3884785518 Hartrees.
 IExCor=20419 DFT=T Ex+Corr=CAM-B3LYP ExCW=0 ScaHFX=  1.000000
 ScaDFX=  1.000000  1.000000  1.000000  0.810000 ScalE2=  1.000000  1.000000
 IRadAn=      5 IRanWt=     -1 IRanGd=            0 ICorTp=0 IEmpDi=141
 HFx  wShort=  0.000000 wLong=  0.330000 cFull=  0.190000 cShort=  0.000000 cLong=  0.460000
 DFx  wShort=  0.000000 wLong=  0.330000 cFull=  0.190000 cShort=  0.000000 cLong=  0.460000
 NAtoms=   29 NActive=   29 NUniq=   29 SFac= 1.00D+00 NAtFMM=   60 NAOKFM=F Big=F
 Integral buffers will be    131072 words long.
 Raffenetti 1 integral format.
 Two-electron integral symmetry is turned on.
 R6Disp:  Grimme-D3(BJ) Dispersion energy=       -0.0260440033 Hartrees.
 Nuclear repulsion after empirical dispersion term =      897.3624345485 Hartrees.
 ------------------------------------------------------------------------------
 Polarizable Continuum Model (PCM)
 =================================
 Model                : PCM.
 Atomic radii         : UFF (Universal Force Field).
 Polarization charges : Total charges.
 Charge compensation  : None.
 Solution method      : On-the-fly selection.
 Cavity type          : Scaled VdW (van der Waals Surface) (Alpha=1.100).
 Cavity algorithm     : GePol (No added spheres)
                        Default sphere list used, NSphG=   29.
                        Lebedev-Laikov grids with approx.  5.0 points / Ang**2.
                        Smoothing algorithm: York/Karplus (Gamma=1.0000).
                        Polarization charges: spherical gaussians, with
                                              point-specific exponents (IZeta= 3).
                        Self-potential: point-specific (ISelfS= 7).
                        Self-field    : sphere-specific E.n sum rule (ISelfD= 2).
 Solvent              : Water, Eps=  78.355300 Eps(inf)=   1.777849
 ------------------------------------------------------------------------------
 GePol: Number of generator spheres                  =      29
 GePol: Total number of spheres                      =      29
 GePol: Number of exposed spheres                    =      29 (100.00%)
 GePol: Number of points                             =    2103
 GePol: Average weight of points                     =       0.13
 GePol: Minimum weight of points                     =   0.28D-08
 GePol: Maximum weight of points                     =    0.20577
 GePol: Number of points with low weight             =     134
 GePol: Fraction of low-weight points (<1% of avg)   =       6.37%
 GePol: Cavity surface area                          =    269.392 Ang**2
 GePol: Cavity volume                                =    286.857 Ang**3
 Leave Link  301 at Sat Jan 24 15:22:14 2026, MaxMem=  2147483648 cpu:               0.6 elap:               0.0
 (Enter /data/home/wyx/g16/l302.exe)
 NPDir=0 NMtPBC=     1 NCelOv=     1 NCel=       1 NClECP=     1 NCelD=      1
         NCelK=      1 NCelE2=     1 NClLst=     1 CellRange=     0.0.
 One-electron integrals computed using PRISM.
 One-electron integral symmetry used in STVInt
 NBasis=   356 RedAO= T EigKep=  3.69D-05  NBF=   356
 NBsUse=   356 1.00D-06 EigRej= -1.00D+00 NBFU=   356
 Precomputing XC quadrature grid using
 IXCGrd= 4 IRadAn=           5 IRanWt=          -1 IRanGd=           0 AccXCQ= 0.00D+00.
 Generated NRdTot=       0 NPtTot=           0 NUsed=           0 NTot=          32
 NSgBfM=   366   366   366   366   366 MxSgAt=    29 MxSgA2=    29.
 Leave Link  302 at Sat Jan 24 15:22:14 2026, MaxMem=  2147483648 cpu:               3.1 elap:               0.2
 (Enter /data/home/wyx/g16/l303.exe)
 DipDrv:  MaxL=1.
 Leave Link  303 at Sat Jan 24 15:22:14 2026, MaxMem=  2147483648 cpu:               0.6 elap:               0.0
 (Enter /data/home/wyx/g16/l308.exe)
 Leave Link  308 at Sat Jan 24 15:22:14 2026, MaxMem=  2147483648 cpu:               0.7 elap:               0.1
 (Enter /data/home/wyx/g16/l401.exe)
 ExpMin= 9.52D-02 ExpMax= 2.70D+04 ExpMxC= 9.22D+02 IAcc=3 IRadAn=         5 AccDes= 0.00D+00
 Harris functional with IExCor=20419 and IRadAn=       5 diagonalized for initial guess.
 HarFok:  IExCor=20419 AccDes= 0.00D+00 IRadAn=         5 IDoV= 1 UseB2=F ITyADJ=14
 ICtDFT=  3500011 ScaDFX=  1.000000  1.000000  1.000000  1.000000
 FoFCou: FMM=F IPFlag=           0 FMFlag=      100000 FMFlg1=           0
         NFxFlg=           0 DoJE=T BraDBF=F KetDBF=T FulRan=T
         wScrn=  0.000000 ICntrl=       500 IOpCl=  0 I1Cent=   200000004 NGrid=           0
         NMat0=    1 NMatS0=      1 NMatT0=    0 NMatD0=    1 NMtDS0=    0 NMtDT0=    0
 Petite list used in FoFCou.
 Harris En= -608.709977582110    
 JPrj=0 DoOrth=F DoCkMO=F.
 Leave Link  401 at Sat Jan 24 15:22:15 2026, MaxMem=  2147483648 cpu:              11.7 elap:               0.7
 (Enter /data/home/wyx/g16/l502.exe)
 Integral symmetry usage will be decided dynamically.
 Closed shell SCF:
 Using DIIS extrapolation, IDIIS=  1040.
 NGot=  2147483648 LenX=  2147200095 LenY=  2147062754
 Requested convergence on RMS density matrix=1.00D-08 within 128 cycles.
 Requested convergence on MAX density matrix=1.00D-06.
 Requested convergence on             energy=1.00D-06.
 No special actions if energy rises.
 Fock matrices will be formed incrementally for  20 cycles.

 Cycle   1  Pass 1  IDiag  1:
 FoFJK:  IHMeth= 1 ICntrl=       0 DoSepK=T KAlg= 0 I1Cent=           0 FoldK=F
 IRaf=         1 NMat=       1 IRICut=       1 DoRegI=T DoRafI=F ISym2E= 0 IDoP0=0 IntGTp=1.
 FoFCou: FMM=F IPFlag=           0 FMFlag=      100000 FMFlg1=           0
         NFxFlg=           0 DoJE=T BraDBF=F KetDBF=F FulRan=T
         wScrn=  0.000000 ICntrl=       500 IOpCl=  0 I1Cent=           0 NGrid=           0
         NMat0=    1 NMatS0=      1 NMatT0=    0 NMatD0=    1 NMtDS0=    0 NMtDT0=    0
 Symmetry not used in FoFCou.
 Inv3:  Mode=1 IEnd=    13267827.
 Iteration    1 A*A^-1 deviation from unit magnitude is 3.11D-15 for    542.
 Iteration    1 A*A^-1 deviation from orthogonality  is 2.97D-15 for   1765    192.
 Iteration    1 A^-1*A deviation from unit magnitude is 3.11D-15 for   1766.
 Iteration    1 A^-1*A deviation from orthogonality  is 2.71D-15 for   1773    625.
 E= -633.115159229640    
 DIIS: error= 4.29D-02 at cycle   1 NSaved=   1.
 NSaved= 1 IEnMin= 1 EnMin= -633.115159229640     IErMin= 1 ErrMin= 4.29D-02
 ErrMax= 4.29D-02  0.00D+00 EMaxC= 1.00D-01 BMatC= 1.10D+00 BMatP= 1.10D+00
 IDIUse=3 WtCom= 5.71D-01 WtEn= 4.29D-01
 Coeff-Com:  0.100D+01
 Coeff-En:   0.100D+01
 Coeff:      0.100D+01
 Gap=     0.216 Goal=   None    Shift=    0.000
 GapD=    0.216 DampG=1.000 DampE=0.500 DampFc=0.5000 IDamp=-1.
 Damping current iteration by 5.00D-01
 RMSDP=4.08D-03 MaxDP=2.50D-01              OVMax= 1.47D-01

 Cycle   2  Pass 1  IDiag  1:
 RMSU=  1.73D-03    CP:  9.25D-01
 E= -633.212148027662     Delta-E=       -0.096988798022 Rises=F Damp=T
 DIIS: error= 1.96D-02 at cycle   2 NSaved=   2.
 NSaved= 2 IEnMin= 2 EnMin= -633.212148027662     IErMin= 2 ErrMin= 1.96D-02
 ErrMax= 1.96D-02  0.00D+00 EMaxC= 1.00D-01 BMatC= 2.23D-01 BMatP= 1.10D+00
 IDIUse=3 WtCom= 8.04D-01 WtEn= 1.96D-01
 Coeff-Com: -0.591D+00 0.159D+01
 Coeff-En:   0.000D+00 0.100D+01
 Coeff:     -0.475D+00 0.147D+01
 Gap=     0.231 Goal=   None    Shift=    0.000
 RMSDP=1.52D-03 MaxDP=4.74D-02 DE=-9.70D-02 OVMax= 1.36D-01

 Cycle   3  Pass 1  IDiag  1:
 RMSU=  1.46D-03    CP:  9.07D-01  1.20D+00
 E= -633.263813116600     Delta-E=       -0.051665088938 Rises=F Damp=F
 DIIS: error= 1.48D-02 at cycle   3 NSaved=   3.
 NSaved= 3 IEnMin= 3 EnMin= -633.263813116600     IErMin= 3 ErrMin= 1.48D-02
 ErrMax= 1.48D-02  0.00D+00 EMaxC= 1.00D-01 BMatC= 6.16D-02 BMatP= 2.23D-01
 IDIUse=3 WtCom= 8.52D-01 WtEn= 1.48D-01
 Coeff-Com: -0.359D+00 0.787D+00 0.572D+00
 Coeff-En:   0.000D+00 0.000D+00 0.100D+01
 Coeff:     -0.306D+00 0.671D+00 0.635D+00
 Gap=     0.229 Goal=   None    Shift=    0.000
 RMSDP=1.55D-03 MaxDP=1.04D-01 DE=-5.17D-02 OVMax= 7.76D-02

 Cycle   4  Pass 1  IDiag  1:
 RMSU=  5.21D-04    CP:  8.49D-01  1.74D+00  4.97D-01
 E= -633.309222733168     Delta-E=       -0.045409616568 Rises=F Damp=F
 DIIS: error= 4.62D-03 at cycle   4 NSaved=   4.
 NSaved= 4 IEnMin= 4 EnMin= -633.309222733168     IErMin= 4 ErrMin= 4.62D-03
 ErrMax= 4.62D-03  0.00D+00 EMaxC= 1.00D-01 BMatC= 7.97D-03 BMatP= 6.16D-02
 IDIUse=3 WtCom= 9.54D-01 WtEn= 4.62D-02
 Coeff-Com: -0.165D+00 0.357D+00 0.373D+00 0.434D+00
 Coeff-En:   0.000D+00 0.000D+00 0.510D-01 0.949D+00
 Coeff:     -0.157D+00 0.341D+00 0.358D+00 0.458D+00
 Gap=     0.223 Goal=   None    Shift=    0.000
 RMSDP=4.28D-04 MaxDP=2.92D-02 DE=-4.54D-02 OVMax= 1.73D-02

 Cycle   5  Pass 1  IDiag  1:
 RMSU=  9.78D-05    CP:  8.64D-01  1.64D+00  6.55D-01  6.17D-01
 E= -633.315344184763     Delta-E=       -0.006121451595 Rises=F Damp=F
 DIIS: error= 5.12D-04 at cycle   5 NSaved=   5.
 NSaved= 5 IEnMin= 5 EnMin= -633.315344184763     IErMin= 5 ErrMin= 5.12D-04
 ErrMax= 5.12D-04  0.00D+00 EMaxC= 1.00D-01 BMatC= 9.19D-05 BMatP= 7.97D-03
 IDIUse=3 WtCom= 9.95D-01 WtEn= 5.12D-03
 Coeff-Com: -0.369D-01 0.793D-01 0.973D-01 0.170D+00 0.690D+00
 Coeff-En:   0.000D+00 0.000D+00 0.000D+00 0.000D+00 0.100D+01
 Coeff:     -0.367D-01 0.789D-01 0.968D-01 0.169D+00 0.692D+00
 Gap=     0.223 Goal=   None    Shift=    0.000
 RMSDP=1.51D-04 MaxDP=1.05D-02 DE=-6.12D-03 OVMax= 2.58D-03

 Cycle   6  Pass 1  IDiag  1:
 RMSU=  5.93D-05    CP:  8.58D-01  1.68D+00  6.46D-01  7.65D-01  1.00D+00
 E= -633.315399126576     Delta-E=       -0.000054941813 Rises=F Damp=F
 DIIS: error= 4.74D-04 at cycle   6 NSaved=   6.
 NSaved= 6 IEnMin= 6 EnMin= -633.315399126576     IErMin= 6 ErrMin= 4.74D-04
 ErrMax= 4.74D-04  0.00D+00 EMaxC= 1.00D-01 BMatC= 2.88D-05 BMatP= 9.19D-05
 IDIUse=3 WtCom= 9.95D-01 WtEn= 4.74D-03
 Coeff-Com:  0.178D-01-0.388D-01-0.312D-01-0.780D-02 0.415D+00 0.645D+00
 Coeff-En:   0.000D+00 0.000D+00 0.000D+00 0.000D+00 0.154D+00 0.846D+00
 Coeff:      0.177D-01-0.386D-01-0.311D-01-0.777D-02 0.414D+00 0.646D+00
 Gap=     0.224 Goal=   None    Shift=    0.000
 RMSDP=3.12D-05 MaxDP=2.20D-03 DE=-5.49D-05 OVMax= 3.22D-03

 Cycle   7  Pass 1  IDiag  1:
 RMSU=  1.91D-05    CP:  8.58D-01  1.68D+00  6.54D-01  7.56D-01  1.14D+00
                    CP:  7.58D-01
 E= -633.315426481630     Delta-E=       -0.000027355053 Rises=F Damp=F
 DIIS: error= 4.09D-05 at cycle   7 NSaved=   7.
 NSaved= 7 IEnMin= 7 EnMin= -633.315426481630     IErMin= 7 ErrMin= 4.09D-05
 ErrMax= 4.09D-05  0.00D+00 EMaxC= 1.00D-01 BMatC= 1.06D-06 BMatP= 2.88D-05
 IDIUse=1 WtCom= 1.00D+00 WtEn= 0.00D+00
 Coeff-Com:  0.476D-02-0.103D-01-0.949D-02-0.113D-01 0.155D-01 0.167D+00
 Coeff-Com:  0.844D+00
 Coeff:      0.476D-02-0.103D-01-0.949D-02-0.113D-01 0.155D-01 0.167D+00
 Coeff:      0.844D+00
 Gap=     0.224 Goal=   None    Shift=    0.000
 RMSDP=1.76D-05 MaxDP=1.14D-03 DE=-2.74D-05 OVMax= 7.16D-04

 Cycle   8  Pass 1  IDiag  1:
 RMSU=  6.94D-06    CP:  8.58D-01  1.68D+00  6.53D-01  7.72D-01  1.17D+00
                    CP:  8.89D-01  9.34D-01
 E= -633.315427985798     Delta-E=       -0.000001504169 Rises=F Damp=F
 DIIS: error= 2.35D-05 at cycle   8 NSaved=   8.
 NSaved= 8 IEnMin= 8 EnMin= -633.315427985798     IErMin= 8 ErrMin= 2.35D-05
 ErrMax= 2.35D-05  0.00D+00 EMaxC= 1.00D-01 BMatC= 2.39D-07 BMatP= 1.06D-06
 IDIUse=1 WtCom= 1.00D+00 WtEn= 0.00D+00
 Coeff-Com: -0.208D-03 0.522D-03-0.201D-03-0.552D-02-0.650D-01-0.737D-02
 Coeff-Com:  0.389D+00 0.689D+00
 Coeff:     -0.208D-03 0.522D-03-0.201D-03-0.552D-02-0.650D-01-0.737D-02
 Coeff:      0.389D+00 0.689D+00
 Gap=     0.224 Goal=   None    Shift=    0.000
 RMSDP=7.11D-06 MaxDP=3.72D-04 DE=-1.50D-06 OVMax= 4.12D-04

 Cycle   9  Pass 1  IDiag  1:
 RMSU=  3.01D-06    CP:  8.57D-01  1.68D+00  6.53D-01  7.78D-01  1.19D+00
                    CP:  9.16D-01  1.06D+00  9.27D-01
 E= -633.315428296116     Delta-E=       -0.000000310318 Rises=F Damp=F
 DIIS: error= 1.10D-05 at cycle   9 NSaved=   9.
 NSaved= 9 IEnMin= 9 EnMin= -633.315428296116     IErMin= 9 ErrMin= 1.10D-05
 ErrMax= 1.10D-05  0.00D+00 EMaxC= 1.00D-01 BMatC= 4.28D-08 BMatP= 2.39D-07
 IDIUse=1 WtCom= 1.00D+00 WtEn= 0.00D+00
 Coeff-Com: -0.918D-03 0.202D-02 0.164D-02-0.604D-03-0.332D-01-0.248D-01
 Coeff-Com:  0.204D-01 0.329D+00 0.706D+00
 Coeff:     -0.918D-03 0.202D-02 0.164D-02-0.604D-03-0.332D-01-0.248D-01
 Coeff:      0.204D-01 0.329D+00 0.706D+00
 Gap=     0.224 Goal=   None    Shift=    0.000
 RMSDP=2.66D-06 MaxDP=1.54D-04 DE=-3.10D-07 OVMax= 1.87D-04

 Cycle  10  Pass 1  IDiag  1:
 RMSU=  9.77D-07    CP:  8.57D-01  1.68D+00  6.53D-01  7.80D-01  1.19D+00
                    CP:  9.39D-01  1.06D+00  1.11D+00  8.29D-01
 E= -633.315428347835     Delta-E=       -0.000000051718 Rises=F Damp=F
 DIIS: error= 3.58D-06 at cycle  10 NSaved=  10.
 NSaved=10 IEnMin=10 EnMin= -633.315428347835     IErMin=10 ErrMin= 3.58D-06
 ErrMax= 3.58D-06  0.00D+00 EMaxC= 1.00D-01 BMatC= 6.93D-09 BMatP= 4.28D-08
 IDIUse=1 WtCom= 1.00D+00 WtEn= 0.00D+00
 Coeff-Com: -0.499D-03 0.108D-02 0.102D-02 0.615D-03-0.804D-02-0.104D-01
 Coeff-Com: -0.539D-01 0.643D-01 0.350D+00 0.656D+00
 Coeff:     -0.499D-03 0.108D-02 0.102D-02 0.615D-03-0.804D-02-0.104D-01
 Coeff:     -0.539D-01 0.643D-01 0.350D+00 0.656D+00
 Gap=     0.224 Goal=   None    Shift=    0.000
 RMSDP=1.02D-06 MaxDP=6.33D-05 DE=-5.17D-08 OVMax= 5.90D-05

 Cycle  11  Pass 1  IDiag  1:
 RMSU=  3.19D-07    CP:  8.57D-01  1.68D+00  6.53D-01  7.81D-01  1.19D+00
                    CP:  9.45D-01  1.07D+00  1.13D+00  9.33D-01  1.11D+00
 E= -633.315428356743     Delta-E=       -0.000000008908 Rises=F Damp=F
 DIIS: error= 2.02D-06 at cycle  11 NSaved=  11.
 NSaved=11 IEnMin=11 EnMin= -633.315428356743     IErMin=11 ErrMin= 2.02D-06
 ErrMax= 2.02D-06  0.00D+00 EMaxC= 1.00D-01 BMatC= 4.41D-10 BMatP= 6.93D-09
 IDIUse=1 WtCom= 1.00D+00 WtEn= 0.00D+00
 Coeff-Com:  0.501D-04-0.112D-03-0.584D-04 0.151D-03 0.294D-02 0.261D-02
 Coeff-Com: -0.180D-01-0.303D-01-0.280D-01 0.155D+00 0.915D+00
 Coeff:      0.501D-04-0.112D-03-0.584D-04 0.151D-03 0.294D-02 0.261D-02
 Coeff:     -0.180D-01-0.303D-01-0.280D-01 0.155D+00 0.915D+00
 Gap=     0.224 Goal=   None    Shift=    0.000
 RMSDP=4.48D-07 MaxDP=3.39D-05 DE=-8.91D-09 OVMax= 3.37D-05

 Cycle  12  Pass 1  IDiag  1:
 RMSU=  1.47D-07    CP:  8.57D-01  1.68D+00  6.53D-01  7.81D-01  1.19D+00
                    CP:  9.47D-01  1.06D+00  1.17D+00  9.22D-01  1.21D+00
                    CP:  1.17D+00
 E= -633.315428357853     Delta-E=       -0.000000001110 Rises=F Damp=F
 DIIS: error= 8.95D-07 at cycle  12 NSaved=  12.
 NSaved=12 IEnMin=12 EnMin= -633.315428357853     IErMin=12 ErrMin= 8.95D-07
 ErrMax= 8.95D-07  0.00D+00 EMaxC= 1.00D-01 BMatC= 6.72D-11 BMatP= 4.41D-10
 IDIUse=1 WtCom= 1.00D+00 WtEn= 0.00D+00
 Coeff-Com:  0.488D-04-0.107D-03-0.834D-04 0.265D-04 0.163D-02 0.170D-02
 Coeff-Com: -0.244D-02-0.133D-01-0.425D-01-0.763D-02 0.313D+00 0.749D+00
 Coeff:      0.488D-04-0.107D-03-0.834D-04 0.265D-04 0.163D-02 0.170D-02
 Coeff:     -0.244D-02-0.133D-01-0.425D-01-0.763D-02 0.313D+00 0.749D+00
 Gap=     0.224 Goal=   None    Shift=    0.000
 RMSDP=1.22D-07 MaxDP=7.08D-06 DE=-1.11D-09 OVMax= 1.11D-05

 Cycle  13  Pass 1  IDiag  1:
 RMSU=  3.90D-08    CP:  8.57D-01  1.68D+00  6.53D-01  7.81D-01  1.19D+00
                    CP:  9.48D-01  1.06D+00  1.18D+00  9.16D-01  1.25D+00
                    CP:  1.27D+00  1.16D+00
 E= -633.315428358031     Delta-E=       -0.000000000179 Rises=F Damp=F
 DIIS: error= 4.69D-07 at cycle  13 NSaved=  13.
 NSaved=13 IEnMin=13 EnMin= -633.315428358031     IErMin=13 ErrMin= 4.69D-07
 ErrMax= 4.69D-07  0.00D+00 EMaxC= 1.00D-01 BMatC= 1.13D-11 BMatP= 6.72D-11
 IDIUse=1 WtCom= 1.00D+00 WtEn= 0.00D+00
 Coeff-Com:  0.365D-05-0.717D-05-0.147D-04-0.340D-04-0.296D-03-0.159D-03
 Coeff-Com:  0.371D-02 0.565D-02-0.688D-02-0.396D-01-0.141D+00 0.178D+00
 Coeff-Com:  0.100D+01
 Coeff:      0.365D-05-0.717D-05-0.147D-04-0.340D-04-0.296D-03-0.159D-03
 Coeff:      0.371D-02 0.565D-02-0.688D-02-0.396D-01-0.141D+00 0.178D+00
 Coeff:      0.100D+01
 Gap=     0.224 Goal=   None    Shift=    0.000
 RMSDP=9.38D-08 MaxDP=4.42D-06 DE=-1.79D-10 OVMax= 8.39D-06

 Cycle  14  Pass 1  IDiag  1:
 RMSU=  2.23D-08    CP:  8.57D-01  1.68D+00  6.53D-01  7.81D-01  1.19D+00
                    CP:  9.49D-01  1.06D+00  1.18D+00  9.03D-01  1.27D+00
                    CP:  1.34D+00  1.40D+00  1.33D+00
 E= -633.315428358073     Delta-E=       -0.000000000042 Rises=F Damp=F
 DIIS: error= 1.58D-07 at cycle  14 NSaved=  14.
 NSaved=14 IEnMin=14 EnMin= -633.315428358073     IErMin=14 ErrMin= 1.58D-07
 ErrMax= 1.58D-07  0.00D+00 EMaxC= 1.00D-01 BMatC= 1.06D-12 BMatP= 1.13D-11
 IDIUse=1 WtCom= 1.00D+00 WtEn= 0.00D+00
 Coeff-Com: -0.438D-05 0.978D-05 0.644D-05-0.677D-05-0.211D-03-0.192D-03
 Coeff-Com:  0.701D-03 0.233D-02 0.348D-02-0.142D-02-0.560D-01-0.765D-01
 Coeff-Com:  0.697D-01 0.106D+01
 Coeff:     -0.438D-05 0.978D-05 0.644D-05-0.677D-05-0.211D-03-0.192D-03
 Coeff:      0.701D-03 0.233D-02 0.348D-02-0.142D-02-0.560D-01-0.765D-01
 Coeff:      0.697D-01 0.106D+01
 Gap=     0.224 Goal=   None    Shift=    0.000
 RMSDP=3.25D-08 MaxDP=1.50D-06 DE=-4.16D-11 OVMax= 3.24D-06

 Cycle  15  Pass 1  IDiag  1:
 RMSU=  6.76D-09    CP:  8.57D-01  1.68D+00  6.53D-01  7.81D-01  1.19D+00
                    CP:  9.49D-01  1.06D+00  1.18D+00  8.98D-01  1.28D+00
                    CP:  1.36D+00  1.48D+00  1.56D+00  1.29D+00
 E= -633.315428358079     Delta-E=       -0.000000000005 Rises=F Damp=F
 DIIS: error= 3.62D-08 at cycle  15 NSaved=  15.
 NSaved=15 IEnMin=15 EnMin= -633.315428358079     IErMin=15 ErrMin= 3.62D-08
 ErrMax= 3.62D-08  0.00D+00 EMaxC= 1.00D-01 BMatC= 2.16D-13 BMatP= 1.06D-12
 IDIUse=1 WtCom= 1.00D+00 WtEn= 0.00D+00
 Coeff-Com: -0.204D-05 0.438D-05 0.408D-05 0.169D-05-0.396D-04-0.584D-04
 Coeff-Com: -0.227D-03 0.877D-04 0.184D-02 0.521D-02-0.261D-02-0.417D-01
 Coeff-Com: -0.977D-01 0.384D+00 0.751D+00
 Coeff:     -0.204D-05 0.438D-05 0.408D-05 0.169D-05-0.396D-04-0.584D-04
 Coeff:     -0.227D-03 0.877D-04 0.184D-02 0.521D-02-0.261D-02-0.417D-01
 Coeff:     -0.977D-01 0.384D+00 0.751D+00
 Gap=     0.224 Goal=   None    Shift=    0.000
 RMSDP=5.75D-09 MaxDP=3.40D-07 DE=-5.46D-12 OVMax= 6.88D-07

 Error on total polarization charges =  0.01563
 SCF Done:  E(RCAM-B3LYP) =  -633.315428358     A.U. after   15 cycles
            NFock= 15  Conv=0.58D-08     -V/T= 2.0044
 KE= 6.305287122864D+02 PE=-3.270578139110D+03 EE= 1.109371563917D+03
 Leave Link  502 at Sat Jan 24 15:23:16 2026, MaxMem=  2147483648 cpu:             959.0 elap:              60.5
 (Enter /data/home/wyx/g16/l801.exe)
 DoSCS=F DFT=T ScalE2(SS,OS)=  1.000000  1.000000
 ExpMin= 9.52D-02 ExpMax= 2.70D+04 ExpMxC= 9.22D+02 IAcc=3 IRadAn=         5 AccDes= 0.00D+00
 HarFok:  IExCor=  205 AccDes= 0.00D+00 IRadAn=         5 IDoV=-2 UseB2=F ITyADJ=14
 ICtDFT= 12500011 ScaDFX=  1.000000  1.000000  1.000000  1.000000
 Largest valence mixing into a core orbital is  5.64D-05
 Largest core mixing into a valence orbital is  1.25D-05
 Range of M.O.s used for correlation:    15   356
 NBasis=   356 NAE=    52 NBE=    52 NFC=    14 NFV=     0
 NROrb=    342 NOA=    38 NOB=    38 NVA=   304 NVB=   304

 **** Warning!!: The largest alpha MO coefficient is  0.44841430D+02

 Leave Link  801 at Sat Jan 24 15:23:16 2026, MaxMem=  2147483648 cpu:               1.0 elap:               0.1
 (Enter /data/home/wyx/g16/l914.exe)
 RHF ground state
 Two-electron integrals replicated using symmetry.
 MDV=  2147483648 DFT=T DoStab=F Mixed=T DoRPA=T DoScal=F NonHer=T
 NEqPCM:  Using non-equilibrium solvation (IEInf=1, Eps=  78.3553, EpsInf=   1.7778)
 Inv3:  Mode=1 IEnd=    13267827.
 Iteration    1 A*A^-1 deviation from unit magnitude is 3.00D-15 for    193.
 Iteration    1 A*A^-1 deviation from orthogonality  is 1.55D-15 for   1779    161.
 Iteration    1 A^-1*A deviation from unit magnitude is 2.89D-15 for    846.
 Iteration    1 A^-1*A deviation from orthogonality  is 1.94D-15 for   1399    845.
 Making orbital integer symmetry assigments:
 Orbital symmetries:
       Occupied  (A) (A) (A) (A) (A) (A) (A) (A) (A) (A) (A) (A)
                 (A) (A) (A) (A) (A) (A) (A) (A) (A) (A) (A) (A)
                 (A) (A) (A) (A) (A) (A) (A) (A) (A) (A) (A) (A)
                 (A) (A) (A) (A) (A) (A) (A) (A) (A) (A) (A) (A)
                 (A) (A) (A) (A)
       Virtual   (A) (A) (A) (A) (A) (A) (A) (A) (A) (A) (A) (A)
                 (A) (A) (A) (A) (A) (A) (A) (A) (A) (A) (A) (A)
                 (A) (A) (A) (A) (A) (A) (A) (A) (A) (A) (A) (A)
                 (A) (A) (A) (A) (A) (A) (A) (A) (A) (A) (A) (A)
                 (A) (A) (A) (A) (A) (A) (A) (A) (A) (A) (A) (A)
                 (A) (A) (A) (A) (A) (A) (A) (A) (A) (A) (A) (A)
                 (A) (A) (A) (A) (A) (A) (A) (A) (A) (A) (A) (A)
                 (A) (A) (A) (A) (A) (A) (A) (A) (A) (A) (A) (A)
                 (A) (A) (A) (A) (A) (A) (A) (A) (A) (A) (A) (A)
                 (A) (A) (A) (A) (A) (A) (A) (A) (A) (A) (A) (A)
                 (A) (A) (A) (A) (A) (A) (A) (A) (A) (A) (A) (A)
                 (A) (A) (A) (A) (A) (A) (A) (A) (A) (A) (A) (A)
                 (A) (A) (A) (A) (A) (A) (A) (A) (A) (A) (A) (A)
                 (A) (A) (A) (A) (A) (A) (A) (A) (A) (A) (A) (A)
                 (A) (A) (A) (A) (A) (A) (A) (A) (A) (A) (A) (A)
                 (A) (A) (A) (A) (A) (A) (A) (A) (A) (A) (A) (A)
                 (A) (A) (A) (A) (A) (A) (A) (A) (A) (A) (A) (A)
                 (A) (A) (A) (A) (A) (A) (A) (A) (A) (A) (A) (A)
                 (A) (A) (A) (A) (A) (A) (A) (A) (A) (A) (A) (A)
                 (A) (A) (A) (A) (A) (A) (A) (A) (A) (A) (A) (A)
                 (A) (A) (A) (A) (A) (A) (A) (A) (A) (A) (A) (A)
                 (A) (A) (A) (A) (A) (A) (A) (A) (A) (A) (A) (A)
                 (A) (A) (A) (A) (A) (A) (A) (A) (A) (A) (A) (A)
                 (A) (A) (A) (A) (A) (A) (A) (A) (A) (A) (A) (A)
                 (A) (A) (A) (A) (A) (A) (A) (A) (A) (A) (A) (A)
                 (A) (A) (A) (A)
    24 initial guesses have been made.
 Convergence on wavefunction:    0.001000000000000
 Davidson Disk Diagonalization:  ConvIn= 1.00D-03 SkipCon=T Conv= 1.00D-03.
 Max sub-space:  2000 roots to seek:    24 dimension of matrix:        23104
 Iteration     1 Dimension    24 NMult     0 NNew     24
 CISAX will form    24 AO SS matrices at one time.
 NMat=    24 NSing=    24 JSym2X= 0.
 FoFJK:  IHMeth= 1 ICntrl=       0 DoSepK=T KAlg= 0 I1Cent=           0 FoldK=F
 IRaf=         1 NMat=      48 IRICut=       1 DoRegI=T DoRafI=F ISym2E= 0 IDoP0=3 IntGTp=3.
 New state      1 was old state      2
 New state      2 was old state      1
 New state      3 was old state      4
 New state      4 was old state      3
 New state      6 was old state      7
 Excitation Energies [eV] at current iteration:
 Root      1 :     3.530698143750624
 Root      2 :     3.667240967417532
 Root      3 :     4.450216743778703
 Root      4 :     5.408674497644276
 Root      5 :     6.273297476778622
 Root      6 :     6.341997860763656
 Root      7 :     6.482767613664354
 Root      8 :     6.630710433508702
 Root      9 :     6.963870334497330
 Root     10 :     6.999466207074167
 Root     11 :     7.210823973795052
 Root     12 :     7.235388768601847
 Root     13 :     7.506810624370513
 Root     14 :     7.566986389161755
 Root     15 :     7.697898229281707
 Root     16 :     7.712996017759878
 Root     17 :     7.851693943662406
 Root     18 :     8.220877292666323
 Root     19 :     8.270759260485010
 Root     20 :     8.332021250681196
 Root     21 :     8.414665316502512
 Root     22 :     8.606751236224769
 Root     23 :     8.666017301911335
 Root     24 :     9.076085054933671
 Iteration     2 Dimension    36 NMult    24 NNew     12
 CISAX will form    12 AO SS matrices at one time.
 NMat=    12 NSing=    12 JSym2X= 0.
 New state      1 was old state      2
 Root      1 not converged, maximum delta is    0.053362910814484
 New state      2 was old state      1
 Root      2 not converged, maximum delta is    0.063905872366375
 Root      3 not converged, maximum delta is    0.093210490533960
 Root      4 not converged, maximum delta is    0.315539394093592
 Root      5 not converged, maximum delta is    0.301519276385492
 Root      6 not converged, maximum delta is    0.065863480865517
 Excitation Energies [eV] at current iteration:
 Root      1 :     3.218918982996605   Change is   -0.448321984420927
 Root      2 :     3.336593735716699   Change is   -0.194104408033925
 Root      3 :     4.220313110695622   Change is   -0.229903633083080
 Root      4 :     5.102317679688394   Change is   -0.306356817955882
 Root      5 :     5.346575548244933   Change is   -0.926721928533689
 Root      6 :     6.198260093709284   Change is   -0.143737767054372
 Iteration     3 Dimension    48 NMult    36 NNew     12
 CISAX will form    12 AO SS matrices at one time.
 NMat=    12 NSing=    12 JSym2X= 0.
 Root      1 not converged, maximum delta is    0.008407830407152
 Root      2 not converged, maximum delta is    0.011287164995984
 Root      3 not converged, maximum delta is    0.018197909570484
 Root      4 not converged, maximum delta is    0.045438312552807
 Root      5 not converged, maximum delta is    0.045201606758149
 Root      6 not converged, maximum delta is    0.013534592800827
 Excitation Energies [eV] at current iteration:
 Root      1 :     3.201320879299919   Change is   -0.017598103696686
 Root      2 :     3.329300113668042   Change is   -0.007293622048657
 Root      3 :     4.207811574900454   Change is   -0.012501535795169
 Root      4 :     5.077802370322366   Change is   -0.024515309366028
 Root      5 :     5.318633337393680   Change is   -0.027942210851253
 Root      6 :     6.190212753475552   Change is   -0.008047340233732
 Iteration     4 Dimension    60 NMult    48 NNew     12
 CISAX will form    12 AO SS matrices at one time.
 NMat=    12 NSing=    12 JSym2X= 0.
 Root      1 not converged, maximum delta is    0.002072077065180
 Root      2 not converged, maximum delta is    0.001441314743585
 Root      3 not converged, maximum delta is    0.001916326440445
 Root      4 not converged, maximum delta is    0.005554456923697
 Root      5 not converged, maximum delta is    0.005452048967539
 Root      6 not converged, maximum delta is    0.005706742623001
 Excitation Energies [eV] at current iteration:
 Root      1 :     3.199972553746423   Change is   -0.001348325553496
 Root      2 :     3.329062645741462   Change is   -0.000237467926580
 Root      3 :     4.207338337686375   Change is   -0.000473237214079
 Root      4 :     5.074911900408051   Change is   -0.002890469914314
 Root      5 :     5.315229008495221   Change is   -0.003404328898459
 Root      6 :     6.189598661423743   Change is   -0.000614092051809
 Iteration     5 Dimension    72 NMult    60 NNew     12
 CISAX will form    12 AO SS matrices at one time.
 NMat=    12 NSing=    12 JSym2X= 0.
 Root      1 has converged.
 Root      2 has converged.
 Root      3 has converged.
 Root      4 has converged.
 Root      5 not converged, maximum delta is    0.001216785085152
 Root      6 not converged, maximum delta is    0.002141844786904
 Excitation Energies [eV] at current iteration:
 Root      1 :     3.199892557202943   Change is   -0.000079996543481
 Root      2 :     3.329050622691207   Change is   -0.000012023050255
 Root      3 :     4.207310107116774   Change is   -0.000028230569601
 Root      4 :     5.074725706923163   Change is   -0.000186193484889
 Root      5 :     5.314939632427939   Change is   -0.000289376067282
 Root      6 :     6.189549955428157   Change is   -0.000048705995587
 Iteration     6 Dimension    76 NMult    72 NNew      4
 CISAX will form     4 AO SS matrices at one time.
 NMat=     4 NSing=     4 JSym2X= 0.
 Root      1 has converged.
 Root      2 has converged.
 Root      3 has converged.
 Root      4 has converged.
 Root      5 has converged.
 Root      6 has converged.
 Excitation Energies [eV] at current iteration:
 Root      1 :     3.199891587018620   Change is   -0.000000970184322
 Root      2 :     3.329050569930811   Change is   -0.000000052760397
 Root      3 :     4.207309820371959   Change is   -0.000000286744814
 Root      4 :     5.074718166986842   Change is   -0.000007539936321
 Root      5 :     5.314916449713424   Change is   -0.000023182714515
 Root      6 :     6.189544724997653   Change is   -0.000005230430503
 Convergence achieved on expansion vectors.
 ***********************************************************************
 Excited states from <AA,BB:AA,BB> singles matrix:
 ***********************************************************************
 
 1PDM for each excited state written to RWF  633
 Ground to excited state transition densities written to RWF  633
 Ground to excited state transition electric dipole moments (Au):
       state          X           Y           Z        Dip. S.      Osc.
         1        -1.6010     -0.0289     -0.0216      2.5644      0.2010
         2         0.0575     -0.0093      0.0410      0.0051      0.0004
         3         0.0024     -0.0447      0.0357      0.0033      0.0003
         4        -0.1018     -1.2983      0.0306      1.6969      0.2110
         5        -0.3210      1.3447     -0.0217      1.9117      0.2489
         6        -0.0357      0.0071      0.0470      0.0035      0.0005
 Ground to excited state transition velocity dipole moments (Au):
       state          X           Y           Z        Dip. S.      Osc.
         1         0.1843      0.0028      0.0027      0.0340      0.1927
         2        -0.0067      0.0011     -0.0040      0.0001      0.0003
         3        -0.0007      0.0065     -0.0018      0.0000      0.0002
         4         0.0121      0.2250     -0.0042      0.0508      0.1816
         5         0.0593     -0.2572      0.0041      0.0697      0.2379
         6         0.0079     -0.0010     -0.0302      0.0010      0.0029
 Ground to excited state transition magnetic dipole moments (Au):
       state          X           Y           Z
         1         0.0484      0.0129     -1.3902
         2         0.6956      0.2681      0.0702
         3         0.0021     -0.9187     -0.0285
         4        -0.0027      0.0248     -0.4686
         5        -0.0542     -0.0545      0.3730
         6         0.0289     -0.0212     -0.0166
 Ground to excited state transition velocity quadrupole moments (Au):
       state          XX          YY          ZZ          XY          XZ          YZ
         1         0.3737     -0.1333     -0.0129     -0.4579      0.0209     -0.0031
         2        -0.0130      0.0067     -0.0011      0.0207     -0.0385      0.0166
         3        -0.0011     -0.0003     -0.0061     -0.0134      0.0687      0.0054
         4        -1.2087      0.2096      0.0300     -0.2937     -0.0254     -0.0148
         5         0.9411     -0.4862     -0.0340     -0.0426      0.0476     -0.0041
         6        -0.0895     -0.0651      0.0584     -0.0212     -0.0083      0.0831
 <0|del|b> * <b|rxdel|0> + <0|del|b> * <b|delr+rdel|0>
 Rotatory Strengths (R) in cgs (10**-40 erg-esu-cm/Gauss)
       state          XX          YY          ZZ    R(velocity)    E-M Angle
         1       -15.0257     17.5287     28.8393     10.4474       88.84
         2        -0.0672    -14.4190    -12.4758     -8.9874      142.14
         3       -14.5195      0.0506    -12.6424     -9.0371      162.01
         4        27.5270      1.0077      0.0250      9.5199       85.92
         5        50.0265     -3.1429     -2.1621     14.9072       82.94
         6         1.7950      1.1650     -0.6234      0.7789       52.49
 1/2[<0|r|b>*<b|rxdel|0> + (<0|rxdel|b>*<b|r|0>)*]
 Rotatory Strengths (R) in cgs (10**-40 erg-esu-cm/Gauss)
       state          XX          YY          ZZ     R(length)
         1        54.7809      0.2633    -21.2000     11.2814
         2       -28.2893      1.7717     -2.0332     -9.5169
         3        -0.0035    -29.0648      0.7205     -9.4493
         4        -0.1922     22.7519     10.1255     10.8951
         5       -12.2958     51.8338      5.7134     15.0838
         6         0.7302      0.1070      0.5535      0.4635
  1/2[<0|del|b>*<b|r|0> + (<0|r|b>*<b|del|0>)*] (Au)
       state          X           Y           Z        Dip. S.   Osc.(frdel)
         1        -0.2951     -0.0001     -0.0001      0.2952      0.1968
         2        -0.0004     -0.0000     -0.0002      0.0006      0.0004
         3        -0.0000     -0.0003     -0.0001      0.0004      0.0002
         4        -0.0012     -0.2921     -0.0001      0.2935      0.1957
         5        -0.0190     -0.3459     -0.0001      0.3650      0.2433
         6        -0.0003     -0.0000     -0.0014      0.0017      0.0011

 Excitation energies and oscillator strengths:
 
 Excited State   1:      Singlet-A      3.1999 eV  387.46 nm  f=0.2010  <S**2>=0.000
      52 -> 53         0.70021
 This state for optimization and/or second-order correction.
 Total Energy, E(TD-HF/TD-DFT) =  -633.197834506    
 Copying the excited state density for this state as the 1-particle RhoCI density.
 
 Excited State   2:      Singlet-A      3.3291 eV  372.43 nm  f=0.0004  <S**2>=0.000
      51 -> 53         0.63929
      51 -> 54        -0.26089
 
 Excited State   3:      Singlet-A      4.2073 eV  294.69 nm  f=0.0003  <S**2>=0.000
      50 -> 53         0.52333
      50 -> 54         0.43184
      50 -> 58        -0.11901
 
 Excited State   4:      Singlet-A      5.0747 eV  244.32 nm  f=0.2110  <S**2>=0.000
      52 -> 54         0.69928
 
 Excited State   5:      Singlet-A      5.3149 eV  233.28 nm  f=0.2489  <S**2>=0.000
      49 -> 53         0.69182
 
 Excited State   6:      Singlet-A      6.1895 eV  200.31 nm  f=0.0005  <S**2>=0.000
      52 -> 55         0.66545
      52 -> 56         0.11469
      52 -> 61        -0.12190
 SavETr:  write IOETrn=   770 NScale= 10 NData=  16 NLR=1 NState=    6 LETran=     118.
 Leave Link  914 at Sat Jan 24 15:25:32 2026, MaxMem=  2147483648 cpu:            2168.2 elap:             136.2
 (Enter /data/home/wyx/g16/l601.exe)
 Copying SCF densities to generalized density rwf, IOpCl= 0 IROHF=0.

 **********************************************************************

            Population analysis using the SCF density.

 **********************************************************************

 Orbital symmetries:
       Occupied  (A) (A) (A) (A) (A) (A) (A) (A) (A) (A) (A) (A)
                 (A) (A) (A) (A) (A) (A) (A) (A) (A) (A) (A) (A)
                 (A) (A) (A) (A) (A) (A) (A) (A) (A) (A) (A) (A)
                 (A) (A) (A) (A) (A) (A) (A) (A) (A) (A) (A) (A)
                 (A) (A) (A) (A)
       Virtual   (A) (A) (A) (A) (A) (A) (A) (A) (A) (A) (A) (A)
                 (A) (A) (A) (A) (A) (A) (A) (A) (A) (A) (A) (A)
                 (A) (A) (A) (A) (A) (A) (A) (A) (A) (A) (A) (A)
                 (A) (A) (A) (A) (A) (A) (A) (A) (A) (A) (A) (A)
                 (A) (A) (A) (A) (A) (A) (A) (A) (A) (A) (A) (A)
                 (A) (A) (A) (A) (A) (A) (A) (A) (A) (A) (A) (A)
                 (A) (A) (A) (A) (A) (A) (A) (A) (A) (A) (A) (A)
                 (A) (A) (A) (A) (A) (A) (A) (A) (A) (A) (A) (A)
                 (A) (A) (A) (A) (A) (A) (A) (A) (A) (A) (A) (A)
                 (A) (A) (A) (A) (A) (A) (A) (A) (A) (A) (A) (A)
                 (A) (A) (A) (A) (A) (A) (A) (A) (A) (A) (A) (A)
                 (A) (A) (A) (A) (A) (A) (A) (A) (A) (A) (A) (A)
                 (A) (A) (A) (A) (A) (A) (A) (A) (A) (A) (A) (A)
                 (A) (A) (A) (A) (A) (A) (A) (A) (A) (A) (A) (A)
                 (A) (A) (A) (A) (A) (A) (A) (A) (A) (A) (A) (A)
                 (A) (A) (A) (A) (A) (A) (A) (A) (A) (A) (A) (A)
                 (A) (A) (A) (A) (A) (A) (A) (A) (A) (A) (A) (A)
                 (A) (A) (A) (A) (A) (A) (A) (A) (A) (A) (A) (A)
                 (A) (A) (A) (A) (A) (A) (A) (A) (A) (A) (A) (A)
                 (A) (A) (A) (A) (A) (A) (A) (A) (A) (A) (A) (A)
                 (A) (A) (A) (A) (A) (A) (A) (A) (A) (A) (A) (A)
                 (A) (A) (A) (A) (A) (A) (A) (A) (A) (A) (A) (A)
                 (A) (A) (A) (A) (A) (A) (A) (A) (A) (A) (A) (A)
                 (A) (A) (A) (A) (A) (A) (A) (A) (A) (A) (A) (A)
                 (A) (A) (A) (A) (A) (A) (A) (A) (A) (A) (A) (A)
                 (A) (A) (A) (A)
 The electronic state is 1-A.
 Alpha  occ. eigenvalues --  -19.17733 -19.16399 -14.44663 -10.33485 -10.33329
 Alpha  occ. eigenvalues --  -10.32926 -10.32535 -10.25783 -10.25560 -10.25273
 Alpha  occ. eigenvalues --  -10.25218 -10.24146 -10.24130 -10.24116  -1.11643
 Alpha  occ. eigenvalues --   -1.08313  -1.07405  -0.91538  -0.90608  -0.83952
 Alpha  occ. eigenvalues --   -0.82456  -0.81460  -0.78838  -0.74384  -0.71720
 Alpha  occ. eigenvalues --   -0.69336  -0.62117  -0.58420  -0.56943  -0.55125
 Alpha  occ. eigenvalues --   -0.54701  -0.54148  -0.52270  -0.51788  -0.50649
 Alpha  occ. eigenvalues --   -0.49567  -0.49303  -0.48937  -0.48484  -0.48099
 Alpha  occ. eigenvalues --   -0.46552  -0.45902  -0.44467  -0.43728  -0.42994
 Alpha  occ. eigenvalues --   -0.42438  -0.41568  -0.40485  -0.32908  -0.32236
 Alpha  occ. eigenvalues --   -0.30549  -0.26352
 Alpha virt. eigenvalues --   -0.03936   0.01746   0.06605   0.08491   0.08729
 Alpha virt. eigenvalues --    0.10140   0.11019   0.11318   0.12671   0.13161
 Alpha virt. eigenvalues --    0.14898   0.15048   0.15536   0.16716   0.17164
 Alpha virt. eigenvalues --    0.17410   0.17558   0.17751   0.18548   0.19502
 Alpha virt. eigenvalues --    0.19917   0.20036   0.22324   0.23001   0.24393
 Alpha virt. eigenvalues --    0.24567   0.25045   0.25522   0.25835   0.26199
 Alpha virt. eigenvalues --    0.27372   0.28030   0.28481   0.29227   0.29598
 Alpha virt. eigenvalues --    0.30894   0.31278   0.33651   0.33948   0.34718
 Alpha virt. eigenvalues --    0.35463   0.35848   0.36767   0.36902   0.37504
 Alpha virt. eigenvalues --    0.39941   0.40833   0.41223   0.42375   0.42962
 Alpha virt. eigenvalues --    0.44043   0.44997   0.45393   0.46213   0.46565
 Alpha virt. eigenvalues --    0.47305   0.47888   0.48195   0.48533   0.49016
 Alpha virt. eigenvalues --    0.49394   0.49842   0.50684   0.51549   0.51916
 Alpha virt. eigenvalues --    0.52112   0.53017   0.53066   0.53752   0.54180
 Alpha virt. eigenvalues --    0.54536   0.55548   0.56031   0.57759   0.57918
 Alpha virt. eigenvalues --    0.58563   0.59185   0.60821   0.62435   0.62977
 Alpha virt. eigenvalues --    0.63150   0.65031   0.65714   0.66746   0.67429
 Alpha virt. eigenvalues --    0.67771   0.68742   0.71231   0.71664   0.71847
 Alpha virt. eigenvalues --    0.73352   0.75666   0.77103   0.77603   0.78610
 Alpha virt. eigenvalues --    0.80405   0.81719   0.84549   0.88183   0.90815
 Alpha virt. eigenvalues --    0.93644   0.96722   1.00557   1.02946   1.19957
 Alpha virt. eigenvalues --    1.22292   1.23591   1.27053   1.29937   1.31422
 Alpha virt. eigenvalues --    1.31693   1.33343   1.34295   1.35012   1.36857
 Alpha virt. eigenvalues --    1.37553   1.38053   1.39443   1.39619   1.39842
 Alpha virt. eigenvalues --    1.40509   1.40661   1.41154   1.41260   1.41854
 Alpha virt. eigenvalues --    1.42724   1.43100   1.44149   1.44717   1.45885
 Alpha virt. eigenvalues --    1.48463   1.49657   1.50117   1.50882   1.51399
 Alpha virt. eigenvalues --    1.51840   1.52769   1.54829   1.57383   1.57625
 Alpha virt. eigenvalues --    1.59237   1.59868   1.59933   1.60787   1.61591
 Alpha virt. eigenvalues --    1.62069   1.62486   1.62914   1.63727   1.64819
 Alpha virt. eigenvalues --    1.65383   1.65907   1.66182   1.66800   1.67933
 Alpha virt. eigenvalues --    1.68801   1.69043   1.69656   1.71211   1.72596
 Alpha virt. eigenvalues --    1.72794   1.74209   1.75778   1.76176   1.80190
 Alpha virt. eigenvalues --    1.81851   1.83129   1.84452   1.84872   1.85678
 Alpha virt. eigenvalues --    1.85905   1.86365   1.89771   1.90346   1.90995
 Alpha virt. eigenvalues --    1.91603   1.92695   1.97233   1.98517   2.01346
 Alpha virt. eigenvalues --    2.02227   2.04810   2.06448   2.07956   2.10046
 Alpha virt. eigenvalues --    2.10285   2.13292   2.14985   2.18751   2.20028
 Alpha virt. eigenvalues --    2.20447   2.23440   2.24341   2.24876   2.26429
 Alpha virt. eigenvalues --    2.27589   2.29120   2.30059   2.31640   2.32919
 Alpha virt. eigenvalues --    2.33523   2.34308   2.35587   2.38219   2.38617
 Alpha virt. eigenvalues --    2.39994   2.41551   2.42483   2.43853   2.45572
 Alpha virt. eigenvalues --    2.46669   2.47757   2.49273   2.49902   2.50753
 Alpha virt. eigenvalues --    2.52996   2.54389   2.55361   2.56154   2.57199
 Alpha virt. eigenvalues --    2.57983   2.58473   2.61486   2.62614   2.63136
 Alpha virt. eigenvalues --    2.63859   2.64817   2.65449   2.66245   2.68105
 Alpha virt. eigenvalues --    2.68741   2.71210   2.73408   2.74442   2.75326
 Alpha virt. eigenvalues --    2.76421   2.76681   2.77283   2.78231   2.78901
 Alpha virt. eigenvalues --    2.80340   2.81261   2.82864   2.83836   2.84713
 Alpha virt. eigenvalues --    2.85606   2.88079   2.89070   2.91333   2.92885
 Alpha virt. eigenvalues --    2.98109   2.98836   2.99427   3.04023   3.08438
 Alpha virt. eigenvalues --    3.11196   3.12813   3.15195   3.17298   3.20272
 Alpha virt. eigenvalues --    3.21518   3.22243   3.25191   3.25784   3.26579
 Alpha virt. eigenvalues --    3.29613   3.31068   3.31299   3.35501   3.37854
 Alpha virt. eigenvalues --    3.38666   3.39461   3.39777   3.40280   3.41273
 Alpha virt. eigenvalues --    3.42497   3.43922   3.45046   3.46471   3.49117
 Alpha virt. eigenvalues --    3.51158   3.52692   3.54793   3.56550   3.59823
 Alpha virt. eigenvalues --    3.62737   3.92152   4.00124   4.27569   4.35670
 Alpha virt. eigenvalues --   21.64412  21.75965  22.04369  22.10254  22.11821
 Alpha virt. eigenvalues --   22.12761  22.16083  22.19077  22.20579  22.26413
 Alpha virt. eigenvalues --   22.30734  31.92839  43.64646  43.68004
          Condensed to atoms (all electrons):
               1          2          3          4          5          6
     1  O    7.953523   0.000000  -0.000231   0.000017   0.018567   0.016324
     2  O    0.000000   8.141164   0.000749   0.000004  -0.187476   0.001801
     3  N   -0.000231   0.000749   6.331620   0.369202  -0.087274   0.391326
     4  H    0.000017   0.000004   0.369202   0.391149   0.010808  -0.039310
     5  C    0.018567  -0.187476  -0.087274   0.010808   7.179549  -0.038769
     6  C    0.016324   0.001801   0.391326  -0.039310  -0.038769   5.556124
     7  C    0.000123   0.001816   0.345040  -0.042676   0.310395  -0.157319
     8  C   -0.000281   0.590750   0.004218  -0.001414  -0.483886   0.048687
     9  C   -0.003767   0.025497   0.019333   0.000986  -0.677242  -0.090986
    10  H    0.006752  -0.000117   0.001515   0.000013  -0.047414  -0.004436
    11  H    0.009377  -0.000160  -0.000645   0.000005  -0.109401   0.021139
    12  C   -0.255524  -0.004161  -0.105347   0.018241   0.212980  -0.126839
    13  C    0.736913   0.000003  -0.000939   0.000538   0.063955   0.115456
    14  C   -0.000015  -0.096347  -0.047718   0.002486   0.045918  -0.004900
    15  H    0.000000   0.003446  -0.000299   0.000079  -0.011275   0.001343
    16  H    0.000000   0.003503   0.000265  -0.000427  -0.008944   0.002652
    17  H    0.000000   0.046103   0.003661   0.000684   0.014513  -0.000181
    18  C   -0.000324  -0.082051  -0.000281   0.000008  -0.120111  -0.002277
    19  H    0.000002  -0.000978   0.000010  -0.000001  -0.003848   0.000047
    20  H    0.000007  -0.001200   0.000011  -0.000000  -0.003767   0.000063
    21  H    0.000879   0.007774   0.000058   0.000000   0.081043  -0.001360
    22  C   -0.118748   0.000000   0.000354   0.000099   0.000090  -0.009088
    23  H    0.003873  -0.000000   0.000052  -0.000051  -0.000356  -0.023765
    24  H    0.002301   0.000000   0.000105  -0.000015  -0.000088   0.008101
    25  H    0.010192  -0.000000   0.000021  -0.000002  -0.000063  -0.001620
    26  C    0.000811   0.000010  -0.027587  -0.010960   0.002092   0.202101
    27  H   -0.000114  -0.000000   0.000023   0.000881   0.000386  -0.037249
    28  H   -0.000026  -0.000000  -0.002755   0.000586   0.000481  -0.039693
    29  H    0.000019   0.000000   0.004133   0.002204  -0.000515  -0.052352
               7          8          9         10         11         12
     1  O    0.000123  -0.000281  -0.003767   0.006752   0.009377  -0.255524
     2  O    0.001816   0.590750   0.025497  -0.000117  -0.000160  -0.004161
     3  N    0.345040   0.004218   0.019333   0.001515  -0.000645  -0.105347
     4  H   -0.042676  -0.001414   0.000986   0.000013   0.000005   0.018241
     5  C    0.310395  -0.483886  -0.677242  -0.047414  -0.109401   0.212980
     6  C   -0.157319   0.048687  -0.090986  -0.004436   0.021139  -0.126839
     7  C    5.555754  -0.233561  -0.279839   0.000325   0.011566   0.060704
     8  C   -0.233561   5.787764   0.216563  -0.007395   0.002357  -0.094380
     9  C   -0.279839   0.216563   6.510452   0.434009   0.516054  -0.156725
    10  H    0.000325  -0.007395   0.434009   0.543174  -0.043348  -0.032225
    11  H    0.011566   0.002357   0.516054  -0.043348   0.525069  -0.081873
    12  C    0.060704  -0.094380  -0.156725  -0.032225  -0.081873   7.502890
    13  C    0.027707  -0.010620  -0.216429  -0.005842  -0.002679  -0.508803
    14  C    0.177263  -0.106003   0.022281  -0.000509  -0.000091   0.005190
    15  H   -0.028148   0.007199  -0.001272   0.000104  -0.000010  -0.000320
    16  H   -0.036575   0.007161  -0.000091  -0.000026   0.000056  -0.001080
    17  H   -0.064648  -0.030947   0.002602  -0.000018  -0.000009  -0.000343
    18  C    0.028703   0.267301  -0.027868  -0.004723  -0.011464   0.012283
    19  H   -0.000853  -0.025735  -0.001718   0.000464   0.000500  -0.000278
    20  H   -0.001275  -0.021600  -0.001070   0.000255   0.000271  -0.000374
    21  H    0.005934  -0.147330  -0.016101  -0.004817  -0.003074   0.005270
    22  C    0.001290  -0.000053   0.018224   0.001363   0.000083  -0.300953
    23  H   -0.000015   0.000001   0.001337  -0.000151   0.000042   0.048110
    24  H   -0.000034   0.000002  -0.002117   0.000150  -0.000119   0.002548
    25  H    0.000009  -0.000000  -0.000050  -0.000077  -0.000041   0.027571
    26  C    0.004482   0.000867   0.018944  -0.000296  -0.000004  -0.088196
    27  H   -0.001135  -0.000001  -0.000529  -0.000020   0.000011  -0.001152
    28  H   -0.001301  -0.000004  -0.000465  -0.000013   0.000054  -0.017298
    29  H    0.003503   0.000021  -0.000637   0.000037  -0.000008   0.023619
              13         14         15         16         17         18
     1  O    0.736913  -0.000015   0.000000   0.000000   0.000000  -0.000324
     2  O    0.000003  -0.096347   0.003446   0.003503   0.046103  -0.082051
     3  N   -0.000939  -0.047718  -0.000299   0.000265   0.003661  -0.000281
     4  H    0.000538   0.002486   0.000079  -0.000427   0.000684   0.000008
     5  C    0.063955   0.045918  -0.011275  -0.008944   0.014513  -0.120111
     6  C    0.115456  -0.004900   0.001343   0.002652  -0.000181  -0.002277
     7  C    0.027707   0.177263  -0.028148  -0.036575  -0.064648   0.028703
     8  C   -0.010620  -0.106003   0.007199   0.007161  -0.030947   0.267301
     9  C   -0.216429   0.022281  -0.001272  -0.000091   0.002602  -0.027868
    10  H   -0.005842  -0.000509   0.000104  -0.000026  -0.000018  -0.004723
    11  H   -0.002679  -0.000091  -0.000010   0.000056  -0.000009  -0.011464
    12  C   -0.508803   0.005190  -0.000320  -0.001080  -0.000343   0.012283
    13  C    5.535121  -0.000034  -0.000022  -0.000028   0.000005   0.000758
    14  C   -0.000034   5.342241   0.387053   0.389964   0.413217  -0.005073
    15  H   -0.000022   0.387053   0.524679  -0.029889  -0.014594   0.000120
    16  H   -0.000028   0.389964  -0.029889   0.530551  -0.015008   0.000119
    17  H    0.000005   0.413217  -0.014594  -0.015008   0.442666   0.001760
    18  C    0.000758  -0.005073   0.000120   0.000119   0.001760   5.157044
    19  H   -0.000022  -0.000051   0.000012  -0.000008   0.000008   0.412525
    20  H   -0.000016   0.000008  -0.000009   0.000010  -0.000009   0.405242
    21  H    0.002157   0.000629  -0.000018  -0.000013  -0.000231   0.413373
    22  C    0.327210   0.000022   0.000000  -0.000002   0.000000   0.000012
    23  H   -0.072525   0.000002  -0.000000   0.000000  -0.000000   0.000000
    24  H   -0.039652  -0.000000   0.000000  -0.000000  -0.000000  -0.000000
    25  H   -0.047004   0.000000   0.000000  -0.000000  -0.000000   0.000000
    26  C   -0.052171  -0.000569  -0.000161   0.000071   0.000013  -0.000021
    27  H   -0.007482  -0.000001  -0.000003   0.000007  -0.000000  -0.000000
    28  H    0.005935  -0.000059   0.000010  -0.000014  -0.000000  -0.000000
    29  H   -0.000110   0.000567  -0.000007   0.000028   0.000000   0.000001
              19         20         21         22         23         24
     1  O    0.000002   0.000007   0.000879  -0.118748   0.003873   0.002301
     2  O   -0.000978  -0.001200   0.007774   0.000000  -0.000000   0.000000
     3  N    0.000010   0.000011   0.000058   0.000354   0.000052   0.000105
     4  H   -0.000001  -0.000000   0.000000   0.000099  -0.000051  -0.000015
     5  C   -0.003848  -0.003767   0.081043   0.000090  -0.000356  -0.000088
     6  C    0.000047   0.000063  -0.001360  -0.009088  -0.023765   0.008101
     7  C   -0.000853  -0.001275   0.005934   0.001290  -0.000015  -0.000034
     8  C   -0.025735  -0.021600  -0.147330  -0.000053   0.000001   0.000002
     9  C   -0.001718  -0.001070  -0.016101   0.018224   0.001337  -0.002117
    10  H    0.000464   0.000255  -0.004817   0.001363  -0.000151   0.000150
    11  H    0.000500   0.000271  -0.003074   0.000083   0.000042  -0.000119
    12  C   -0.000278  -0.000374   0.005270  -0.300953   0.048110   0.002548
    13  C   -0.000022  -0.000016   0.002157   0.327210  -0.072525  -0.039652
    14  C   -0.000051   0.000008   0.000629   0.000022   0.000002  -0.000000
    15  H    0.000012  -0.000009  -0.000018   0.000000  -0.000000   0.000000
    16  H   -0.000008   0.000010  -0.000013  -0.000002   0.000000  -0.000000
    17  H    0.000008  -0.000009  -0.000231   0.000000  -0.000000  -0.000000
    18  C    0.412525   0.405242   0.413373   0.000012   0.000000  -0.000000
    19  H    0.496477  -0.019500  -0.021916  -0.000000   0.000000   0.000000
    20  H   -0.019500   0.499550  -0.020814  -0.000001   0.000000  -0.000000
    21  H   -0.021916  -0.020814   0.549585   0.000054  -0.000001  -0.000001
    22  C   -0.000000  -0.000001   0.000054   5.427928   0.385231   0.406848
    23  H    0.000000   0.000000  -0.000001   0.385231   0.546078  -0.029914
    24  H    0.000000  -0.000000  -0.000001   0.406848  -0.029914   0.498483
    25  H   -0.000000   0.000000  -0.000000   0.380952  -0.020270  -0.008492
    26  C    0.000000   0.000000  -0.000014  -0.040523   0.020423  -0.015496
    27  H   -0.000000   0.000000   0.000000   0.011313  -0.008302  -0.000982
    28  H    0.000000  -0.000000   0.000000  -0.013124  -0.002339   0.001545
    29  H    0.000000  -0.000000  -0.000000   0.001753   0.000715   0.000154
              25         26         27         28         29
     1  O    0.010192   0.000811  -0.000114  -0.000026   0.000019
     2  O   -0.000000   0.000010  -0.000000  -0.000000   0.000000
     3  N    0.000021  -0.027587   0.000023  -0.002755   0.004133
     4  H   -0.000002  -0.010960   0.000881   0.000586   0.002204
     5  C   -0.000063   0.002092   0.000386   0.000481  -0.000515
     6  C   -0.001620   0.202101  -0.037249  -0.039693  -0.052352
     7  C    0.000009   0.004482  -0.001135  -0.001301   0.003503
     8  C   -0.000000   0.000867  -0.000001  -0.000004   0.000021
     9  C   -0.000050   0.018944  -0.000529  -0.000465  -0.000637
    10  H   -0.000077  -0.000296  -0.000020  -0.000013   0.000037
    11  H   -0.000041  -0.000004   0.000011   0.000054  -0.000008
    12  C    0.027571  -0.088196  -0.001152  -0.017298   0.023619
    13  C   -0.047004  -0.052171  -0.007482   0.005935  -0.000110
    14  C    0.000000  -0.000569  -0.000001  -0.000059   0.000567
    15  H    0.000000  -0.000161  -0.000003   0.000010  -0.000007
    16  H   -0.000000   0.000071   0.000007  -0.000014   0.000028
    17  H   -0.000000   0.000013  -0.000000  -0.000000   0.000000
    18  C    0.000000  -0.000021  -0.000000  -0.000000   0.000001
    19  H   -0.000000   0.000000  -0.000000   0.000000   0.000000
    20  H    0.000000   0.000000   0.000000  -0.000000  -0.000000
    21  H   -0.000000  -0.000014   0.000000   0.000000  -0.000000
    22  C    0.380952  -0.040523   0.011313  -0.013124   0.001753
    23  H   -0.020270   0.020423  -0.008302  -0.002339   0.000715
    24  H   -0.008492  -0.015496  -0.000982   0.001545   0.000154
    25  H    0.499749   0.001900   0.000648   0.000105  -0.000045
    26  C    0.001900   5.242041   0.413173   0.439154   0.386248
    27  H    0.000648   0.413173   0.511327  -0.029330  -0.023131
    28  H    0.000105   0.439154  -0.029330   0.474922  -0.015103
    29  H   -0.000045   0.386248  -0.023131  -0.015103   0.516115
 Mulliken charges:
               1
     1  O   -0.380649
     2  O   -0.450131
     3  N   -0.198620
     4  H    0.296864
     5  C   -0.160347
     6  C    0.264982
     7  C    0.312766
     8  C    0.230322
     9  C   -0.309376
    10  H    0.163268
    11  H    0.166344
    12  C   -0.143535
    13  C    0.148622
    14  C   -0.525467
    15  H    0.161981
    16  H    0.157719
    17  H    0.200756
    18  C   -0.445054
    19  H    0.164864
    20  H    0.164218
    21  H    0.148934
    22  C   -0.480336
    23  H    0.151827
    24  H    0.176674
    25  H    0.156519
    26  C   -0.496332
    27  H    0.171663
    28  H    0.198733
    29  H    0.152792
 Sum of Mulliken charges =  -0.00000
 Mulliken charges with hydrogens summed into heavy atoms:
               1
     1  O   -0.380649
     2  O   -0.450131
     3  N    0.098244
     5  C   -0.160347
     6  C    0.264982
     7  C    0.312766
     8  C    0.230322
     9  C    0.020235
    12  C   -0.143535
    13  C    0.148622
    14  C   -0.005011
    18  C    0.032962
    22  C    0.004684
    26  C    0.026855
 Electronic spatial extent (au):  <R**2>=           3241.6111
 Charge=             -0.0000 electrons
 Dipole moment (field-independent basis, Debye):
    X=             -4.7875    Y=              7.8250    Z=             -0.0764  Tot=              9.1737
 Quadrupole moment (field-independent basis, Debye-Ang):
   XX=           -100.6975   YY=            -78.6747   ZZ=            -84.2695
   XY=            -14.2590   XZ=             -1.5904   YZ=             -0.6587
 Traceless Quadrupole moment (field-independent basis, Debye-Ang):
   XX=            -12.8170   YY=              9.2059   ZZ=              3.6110
   XY=            -14.2590   XZ=             -1.5904   YZ=             -0.6587
 Octapole moment (field-independent basis, Debye-Ang**2):
  XXX=           -128.2205  YYY=             69.5816  ZZZ=              0.2593  XYY=             37.4823
  XXY=             27.2000  XXZ=             -3.0966  XZZ=             -0.5880  YZZ=             -0.7724
  YYZ=              1.2497  XYZ=              1.2809
 Hexadecapole moment (field-independent basis, Debye-Ang**3):
 XXXX=          -3210.3963 YYYY=          -1286.6532 ZZZZ=           -125.8011 XXXY=            -57.8689
 XXXZ=            -16.7395 YYYX=            -94.0050 YYYZ=             -7.9560 ZZZX=              0.2080
 ZZZY=              1.4887 XXYY=           -695.9881 XXZZ=           -485.7463 YYZZ=           -234.3333
 XXYZ=             -3.1693 YYXZ=             -3.9062 ZZXY=             -4.3792
 N-N= 8.973624345485D+02 E-N=-3.270578141933D+03  KE= 6.305287122864D+02
 Leave Link  601 at Sat Jan 24 15:25:34 2026, MaxMem=  2147483648 cpu:               0.7 elap:               0.1
 (Enter /data/home/wyx/g16/l9999.exe)
 Electronic transition elements 
                 1             2             3             4             5 
      1  -0.633198D+03 -0.633193D+03 -0.633161D+03 -0.633129D+03 -0.633120D+03
      2   0.148107D+01 -0.422130D-01  0.197089D-01  0.543064D+00 -0.167640D+00
      3   0.540491D+00 -0.306113D-01 -0.439767D-01 -0.117836D+01  0.137106D+01
      4   0.280538D+00 -0.485280D-01 -0.309832D-01  0.115831D+00 -0.614555D-01
      5  -0.170285D+00  0.508993D-02 -0.194569D-02 -0.887666D-01  0.340082D-01
      6  -0.627698D-01  0.355830D-02  0.638091D-02  0.206167D+00 -0.261534D+00
      7  -0.324475D-01  0.486671D-02  0.121508D-02 -0.202128D-01  0.121016D-01
      8  -0.306214D+00 -0.719622D+00  0.306675D+00 -0.927052D-01  0.137551D+00
      9   0.466165D-01  0.173965D-02 -0.858177D+00  0.415305D-01 -0.456400D-01
     10   0.135622D+01 -0.207086D+00  0.119337D+00  0.458107D+00 -0.352195D+00
     11   0.622729D-02  0.138063D-01 -0.336826D-01 -0.117512D+01  0.698611D+00
     12   0.234074D+00 -0.116802D-01  0.987640D-02  0.226319D+00 -0.276979D+00
     13  -0.128708D-01 -0.955015D-02  0.163325D-01 -0.202238D-01 -0.703967D-03
     14   0.502200D+00 -0.174041D-01  0.857758D-02 -0.245876D+00  0.491700D+00
     15   0.314199D-02 -0.268341D-01  0.608032D-01 -0.246700D+00  0.162666D+00
     16   0.958029D-01 -0.325302D-01  0.206000D-01 -0.488455D-01  0.122898D+00
                 6 
      1  -0.633088D+03
      2   0.391554D-01
      3   0.175535D-01
      4  -0.411589D-01
      5  -0.125518D-01
      6  -0.256749D-02
      7   0.284678D-01
      8  -0.224878D-01
      9  -0.294355D-01
     10   0.138312D-01
     11  -0.102637D+00
     12  -0.599377D-01
     13   0.663291D-01
     14   0.225598D-01
     15  -0.100726D-01
     16  -0.733927D-01
 1\1\GINC-CN015\SP\RCAM-B3LYP TD-FC\TZVP\C11H15N1O2\WYX\24-Jan-2026\0\\
 #p CAM-B3LYP TZVP em=gd3bj td(nstates=6,root=1) scrf=(Solvent=Water)\\
 Title Card Required\\0,1\O,0,2.768019,-1.549781,0.659742\O,0,-3.396275
 ,-1.655867,-0.680071\N,0,-0.650631,1.525121,-0.111194\H,0,-0.962393,2.
 478124,-0.201082\C,0,-1.236599,-0.779324,-0.176477\C,0,0.670327,1.3187
 25,0.12776\C,0,-1.607335,0.533797,-0.302054\C,0,-2.144057,-1.836397,-0
 .362876\C,0,0.185498,-1.136119,0.196453\H,0,0.199747,-1.652947,1.16130
 6\H,0,0.585158,-1.860989,-0.515561\C,0,1.136326,0.041598,0.25459\C,0,2
 .513005,-0.355051,0.482639\C,0,-2.958043,1.067937,-0.623098\H,0,-3.354
 071,1.669388,0.200783\H,0,-2.932998,1.700178,-1.51527\H,0,-3.669929,0.
 262626,-0.810041\C,0,-1.839155,-3.305249,-0.212616\H,0,-2.482293,-3.75
 2816,0.548718\H,0,-2.018635,-3.833184,-1.15222\H,0,-0.80126,-3.435018,
 0.078473\C,0,3.673564,0.613108,0.499163\H,0,3.66559,1.293443,-0.34896\
 H,0,3.669122,1.212807,1.410019\H,0,4.590522,0.029248,0.479943\C,0,1.45
 275,2.597098,0.214108\H,0,2.105088,2.618751,1.080841\H,0,2.064749,2.74
 5969,-0.674916\H,0,0.774195,3.444823,0.291904\\Version=ES64L-G16RevA.0
 3\State=1-A\HF=-633.3154284\RMSD=5.754e-09\PG=C01 [X(C11H15N1O2)]\\@


 In the beginning there was nothing, which exploded.
 Job cpu time:       0 days  0 hours 52 minutes 27.2 seconds.
 Elapsed time:       0 days  0 hours  3 minutes 18.2 seconds.
 File lengths (MBytes):  RWF=    831 Int=      0 D2E=      0 Chk=     34 Scr=      1
 Normal termination of Gaussian 16 at Sat Jan 24 15:25:36 2026.
