 Entering Gaussian System, Link 0=g16
 Input=DDL-S2-cLR-gs-3.gjf
 Output=DDL-S2-cLR-gs-3.log
 Initial command:
 /data/home/wyx/g16/l1.exe "/scr/tmp/wyx/13119/Gau-1528040.inp" -scrdir="/scr/tmp/wyx/13119/"
 Entering Link 1 = /data/home/wyx/g16/l1.exe PID=   1528041.
  
 Copyright (c) 1988,1990,1992,1993,1995,1998,2003,2009,2016,
            Gaussian, Inc.  All Rights Reserved.
  
 This is part of the Gaussian(R) 16 program.  It is based on
 the Gaussian(R) 09 system (copyright 2009, Gaussian, Inc.),
 the Gaussian(R) 03 system (copyright 2003, Gaussian, Inc.),
 the Gaussian(R) 98 system (copyright 1998, Gaussian, Inc.),
 the Gaussian(R) 94 system (copyright 1995, Gaussian, Inc.),
 the Gaussian 92(TM) system (copyright 1992, Gaussian, Inc.),
 the Gaussian 90(TM) system (copyright 1990, Gaussian, Inc.),
 the Gaussian 88(TM) system (copyright 1988, Gaussian, Inc.),
 the Gaussian 86(TM) system (copyright 1986, Carnegie Mellon
 University), and the Gaussian 82(TM) system (copyright 1983,
 Carnegie Mellon University). Gaussian is a federally registered
 trademark of Gaussian, Inc.
  
 This software contains proprietary and confidential information,
 including trade secrets, belonging to Gaussian, Inc.
  
 This software is provided under written license and may be
 used, copied, transmitted, or stored only in accord with that
 written license.
  
 The following legend is applicable only to US Government
 contracts under FAR:
  
                    RESTRICTED RIGHTS LEGEND
  
 Use, reproduction and disclosure by the US Government is
 subject to restrictions as set forth in subparagraphs (a)
 and (c) of the Commercial Computer Software - Restricted
 Rights clause in FAR 52.227-19.
  
 Gaussian, Inc.
 340 Quinnipiac St., Bldg. 40, Wallingford CT 06492
  
  
 ---------------------------------------------------------------
 Warning -- This program may not be used in any manner that
 competes with the business of Gaussian, Inc. or will provide
 assistance to any competitor of Gaussian, Inc.  The licensee
 of this program is prohibited from giving any competitor of
 Gaussian, Inc. access to this program.  By using this program,
 the user acknowledges that Gaussian, Inc. is engaged in the
 business of creating and licensing software in the field of
 computational chemistry and represents and warrants to the
 licensee that it is not a competitor of Gaussian, Inc. and that
 it will not use this program in any manner prohibited above.
 ---------------------------------------------------------------
  

 Cite this work as:
 Gaussian 16, Revision A.03,
 M. J. Frisch, G. W. Trucks, H. B. Schlegel, G. E. Scuseria, 
 M. A. Robb, J. R. Cheeseman, G. Scalmani, V. Barone, 
 G. A. Petersson, H. Nakatsuji, X. Li, M. Caricato, A. V. Marenich, 
 J. Bloino, B. G. Janesko, R. Gomperts, B. Mennucci, H. P. Hratchian, 
 J. V. Ortiz, A. F. Izmaylov, J. L. Sonnenberg, D. Williams-Young, 
 F. Ding, F. Lipparini, F. Egidi, J. Goings, B. Peng, A. Petrone, 
 T. Henderson, D. Ranasinghe, V. G. Zakrzewski, J. Gao, N. Rega, 
 G. Zheng, W. Liang, M. Hada, M. Ehara, K. Toyota, R. Fukuda, 
 J. Hasegawa, M. Ishida, T. Nakajima, Y. Honda, O. Kitao, H. Nakai, 
 T. Vreven, K. Throssell, J. A. Montgomery, Jr., J. E. Peralta, 
 F. Ogliaro, M. J. Bearpark, J. J. Heyd, E. N. Brothers, K. N. Kudin, 
 V. N. Staroverov, T. A. Keith, R. Kobayashi, J. Normand, 
 K. Raghavachari, A. P. Rendell, J. C. Burant, S. S. Iyengar, 
 J. Tomasi, M. Cossi, J. M. Millam, M. Klene, C. Adamo, R. Cammi, 
 J. W. Ochterski, R. L. Martin, K. Morokuma, O. Farkas, 
 J. B. Foresman, and D. J. Fox, Gaussian, Inc., Wallingford CT, 2016.
 
 ******************************************
 Gaussian 16:  ES64L-G16RevA.03 25-Dec-2016
                24-Jan-2026 
 ******************************************
 %nprocshared=16
 Will use up to   16 processors via shared memory.
 %mem=16GB
 %oldchk=DDL-S2-cLR-3.chk
 %chk=DDL-S2-cLR-gs-3.chk
 Copying data from "DDL-S2-cLR-3.chk" to current chk file "DDL-S2-cLR-gs-3.chk"
 IOpt=  2 FromEx=T IUOpen= 4 IOptOp= 5 NList=   0 IFRang= 0 IUIn= 4 IUOut= 2.
 ----------------------------------------------------------------------
 #p CAM-B3LYP TZVP em=gd3bj scrf=(Solvent=Water,NonEquilibrium=Read) Ge
 om=Check Guess=Read
 ----------------------------------------------------------------------
 1/29=2,38=1,172=1/1;
 2/12=2,40=1/2;
 3/5=19,7=101,11=2,14=-4,25=1,30=1,70=6002201,72=1,74=-40,116=-2,124=41/1,2,3;
 4/5=1/1;
 5/5=2,38=6,53=1/2;
 6/7=2,8=2,9=2,10=2,28=1/1;
 99/5=1,9=1/99;
 Leave Link    1 at Sat Jan 24 23:22:00 2026, MaxMem=  2147483648 cpu:               0.8 elap:               0.1
 (Enter /data/home/wyx/g16/l101.exe)
 -------------------
 Title Card Required
 -------------------
 Structure from the checkpoint file:  "DDL-S2-cLR-gs-3.chk"
 Charge =  0 Multiplicity = 1
 Z-Matrix found in chk file.
 O,0,2.764018,-1.55307,0.676186
 O,0,-3.368916,-1.662261,-0.774467
 N,0,-0.66119,1.524926,-0.061796
 H,0,-0.971768,2.47877,-0.146514
 C,0,-1.237669,-0.772792,-0.17154
 C,0,0.664999,1.315519,0.160273
 C,0,-1.607426,0.535828,-0.286741
 C,0,-2.147465,-1.829629,-0.400695
 C,0,0.169337,-1.128956,0.247799
 H,0,0.157696,-1.603062,1.235141
 H,0,0.577797,-1.882381,-0.427447
 C,0,1.128333,0.040277,0.27703
 C,0,2.508753,-0.362918,0.478441
 C,0,-2.949155,1.069564,-0.63228
 H,0,-3.30405,1.781903,0.118454
 H,0,-2.941891,1.584218,-1.596993
 H,0,-3.710101,0.29328,-0.70349
 C,0,-1.823322,-3.283357,-0.218529
 H,0,-2.560177,-3.80305,0.397662
 H,0,-1.79431,-3.80041,-1.18172
 H,0,-0.854372,-3.428069,0.252306
 C,0,3.671141,0.599729,0.436092
 H,0,3.625629,1.282374,-0.408689
 H,0,3.715037,1.196016,1.348245
 H,0,4.581655,0.009052,0.372107
 C,0,1.445704,2.593553,0.240132
 H,0,2.13999,2.59953,1.073394
 H,0,2.011057,2.767906,-0.675135
 H,0,0.770667,3.437511,0.372773
 Recover connectivity data from disk.
 ITRead=  0  0  0  0  0  0  0  0  0  0  0  0  0  0  0  0  0  0  0  0
 ITRead=  0  0  0  0  0  0  0  0  0
 MicOpt= -1 -1 -1 -1 -1 -1 -1 -1 -1 -1 -1 -1 -1 -1 -1 -1 -1 -1 -1 -1
 MicOpt= -1 -1 -1 -1 -1 -1 -1 -1 -1
 NAtoms=     29 NQM=       29 NQMF=       0 NMMI=      0 NMMIF=      0
                NMic=       0 NMicF=      0.
                    Isotopes and Nuclear Properties:
 (Nuclear quadrupole moments (NQMom) in fm**2, nuclear magnetic moments (NMagM)
  in nuclear magnetons)

  Atom         1           2           3           4           5           6           7           8           9          10
 IAtWgt=          16          16          14           1          12          12          12          12          12           1
 AtmWgt=  15.9949146  15.9949146  14.0030740   1.0078250  12.0000000  12.0000000  12.0000000  12.0000000  12.0000000   1.0078250
 NucSpn=           0           0           2           1           0           0           0           0           0           1
 AtZEff=   5.6000000   5.6000000   4.5500000   1.0000000   3.6000000   3.6000000   3.6000000   3.6000000   3.6000000   1.0000000
 NQMom=    0.0000000   0.0000000   2.0440000   0.0000000   0.0000000   0.0000000   0.0000000   0.0000000   0.0000000   0.0000000
 NMagM=    0.0000000   0.0000000   0.4037610   2.7928460   0.0000000   0.0000000   0.0000000   0.0000000   0.0000000   2.7928460
 AtZNuc=   8.0000000   8.0000000   7.0000000   1.0000000   6.0000000   6.0000000   6.0000000   6.0000000   6.0000000   1.0000000

  Atom        11          12          13          14          15          16          17          18          19          20
 IAtWgt=           1          12          12          12           1           1           1          12           1           1
 AtmWgt=   1.0078250  12.0000000  12.0000000  12.0000000   1.0078250   1.0078250   1.0078250  12.0000000   1.0078250   1.0078250
 NucSpn=           1           0           0           0           1           1           1           0           1           1
 AtZEff=   1.0000000   3.6000000   3.6000000   3.6000000   1.0000000   1.0000000   1.0000000   3.6000000   1.0000000   1.0000000
 NQMom=    0.0000000   0.0000000   0.0000000   0.0000000   0.0000000   0.0000000   0.0000000   0.0000000   0.0000000   0.0000000
 NMagM=    2.7928460   0.0000000   0.0000000   0.0000000   2.7928460   2.7928460   2.7928460   0.0000000   2.7928460   2.7928460
 AtZNuc=   1.0000000   6.0000000   6.0000000   6.0000000   1.0000000   1.0000000   1.0000000   6.0000000   1.0000000   1.0000000

  Atom        21          22          23          24          25          26          27          28          29
 IAtWgt=           1          12           1           1           1          12           1           1           1
 AtmWgt=   1.0078250  12.0000000   1.0078250   1.0078250   1.0078250  12.0000000   1.0078250   1.0078250   1.0078250
 NucSpn=           1           0           1           1           1           0           1           1           1
 AtZEff=   1.0000000   3.6000000   1.0000000   1.0000000   1.0000000   3.6000000   1.0000000   1.0000000   1.0000000
 NQMom=    0.0000000   0.0000000   0.0000000   0.0000000   0.0000000   0.0000000   0.0000000   0.0000000   0.0000000
 NMagM=    2.7928460   0.0000000   2.7928460   2.7928460   2.7928460   0.0000000   2.7928460   2.7928460   2.7928460
 AtZNuc=   1.0000000   6.0000000   1.0000000   1.0000000   1.0000000   6.0000000   1.0000000   1.0000000   1.0000000
 Leave Link  101 at Sat Jan 24 23:22:03 2026, MaxMem=  2147483648 cpu:               0.9 elap:               0.1
 (Enter /data/home/wyx/g16/l202.exe)
                          Input orientation:                          
 ---------------------------------------------------------------------
 Center     Atomic      Atomic             Coordinates (Angstroms)
 Number     Number       Type             X           Y           Z
 ---------------------------------------------------------------------
      1          8           0        2.764018   -1.553070    0.676186
      2          8           0       -3.368916   -1.662261   -0.774467
      3          7           0       -0.661190    1.524926   -0.061796
      4          1           0       -0.971768    2.478770   -0.146514
      5          6           0       -1.237669   -0.772792   -0.171540
      6          6           0        0.664999    1.315519    0.160273
      7          6           0       -1.607426    0.535828   -0.286741
      8          6           0       -2.147465   -1.829629   -0.400695
      9          6           0        0.169337   -1.128956    0.247799
     10          1           0        0.157696   -1.603062    1.235141
     11          1           0        0.577797   -1.882381   -0.427447
     12          6           0        1.128333    0.040277    0.277030
     13          6           0        2.508753   -0.362918    0.478441
     14          6           0       -2.949155    1.069564   -0.632280
     15          1           0       -3.304050    1.781903    0.118454
     16          1           0       -2.941891    1.584218   -1.596993
     17          1           0       -3.710101    0.293280   -0.703490
     18          6           0       -1.823322   -3.283357   -0.218529
     19          1           0       -2.560177   -3.803050    0.397662
     20          1           0       -1.794310   -3.800410   -1.181720
     21          1           0       -0.854372   -3.428069    0.252306
     22          6           0        3.671141    0.599729    0.436092
     23          1           0        3.625629    1.282374   -0.408689
     24          1           0        3.715037    1.196016    1.348245
     25          1           0        4.581655    0.009052    0.372107
     26          6           0        1.445704    2.593553    0.240132
     27          1           0        2.139990    2.599530    1.073394
     28          1           0        2.011057    2.767906   -0.675135
     29          1           0        0.770667    3.437511    0.372773
 ---------------------------------------------------------------------
                    Distance matrix (angstroms):
                    1          2          3          4          5
     1  O    0.000000
     2  O    6.303110   0.000000
     3  N    4.663767   4.242386   0.000000
     4  H    5.557757   4.825845   1.006705   0.000000
     5  C    4.164249   2.386816   2.371472   3.262512   0.000000
     6  C    3.591775   5.100332   1.360861   2.031324   2.844519
     7  C    4.939661   2.858727   1.387183   2.049085   1.364726
     8  C    5.035754   1.288278   3.684685   4.473161   1.413204
     9  C    2.663786   3.721381   2.797984   3.804378   1.510749
    10  H    2.666054   4.059436   3.483810   4.454886   2.148288
    11  H    2.471035   3.968050   3.643972   4.636778   2.143034
    12  C    2.318091   4.922350   2.349761   3.245930   2.541704
    13  C    1.233177   6.148582   3.728854   4.536495   3.824415
    14  C    6.421109   2.767541   2.401581   2.476265   2.556510
    15  H    6.946550   3.558621   2.661435   2.448545   3.298559
    16  H    6.896906   3.376170   2.749899   2.604899   3.239103
    17  H    6.872171   1.986350   3.350311   3.547542   2.744522
    18  C    4.983783   2.307787   4.949212   5.825156   2.578398
    19  H    5.786799   2.571171   5.674908   6.502341   3.354919
    20  H    5.411165   2.686433   5.558542   6.416878   3.239874
    21  H    4.097321   3.239641   4.966703   5.921451   2.716074
    22  C    2.348417   7.492960   4.457911   5.042502   5.133171
    23  H    3.155799   7.597916   4.307666   4.757747   5.285037
    24  H    2.985561   7.928306   4.609529   5.083887   5.542134
    25  H    2.415884   8.204846   5.474812   6.099917   5.896725
    26  C    4.372937   6.505531   2.381623   2.450886   4.324609
    27  H    4.217970   7.205935   3.207809   3.344517   4.932646
    28  H    4.589537   6.969961   3.010330   3.043072   4.831601
    29  H    5.382509   6.667832   2.428383   2.055462   4.696418
                    6          7          8          9         10
     6  C    0.000000
     7  C    2.443697   0.000000
     8  C    4.256359   2.428995   0.000000
     9  C    2.495756   2.492815   2.505805   0.000000
    10  H    3.151319   3.163326   2.835676   1.095334   0.000000
    11  H    3.252627   3.262320   2.725904   1.091076   1.737441
    12  C    1.361820   2.836862   3.832325   1.512493   2.135574
    13  C    2.513526   4.282076   4.960291   2.472423   2.763697
    14  C    3.708199   1.484759   3.016896   3.915740   4.503633
    15  H    3.996575   2.143693   3.827580   4.533679   4.968769
    16  H    4.021174   2.143987   3.703592   4.521538   5.271354
    17  H    4.575211   2.157256   2.653349   4.240017   4.723797
    18  C    5.242604   3.825890   1.500526   2.971464   2.976740
    19  H    6.054574   4.494664   2.168432   3.824066   3.595574
    20  H    5.832827   4.431577   2.149115   3.610554   3.805244
    21  H    4.981826   4.070644   2.157200   2.516728   2.306707
    22  C    3.102470   5.328212   6.360674   3.909787   4.223158
    23  H    3.014987   5.287444   6.558448   4.265143   4.801508
    24  H    3.275407   5.606928   6.825119   4.380464   4.527947
    25  H    4.134238   6.246303   7.018478   4.558406   4.786977
    26  C    1.499750   3.719332   5.734637   3.935257   4.501176
    27  H    2.158257   4.489093   6.338190   4.297288   4.649455
    28  H    2.149234   4.269244   6.205316   4.407865   5.117564
    29  H    2.135222   3.809206   6.070956   4.607585   5.150416
                   11         12         13         14         15
    11  H    0.000000
    12  C    2.120375   0.000000
    13  C    2.618777   1.452134   0.000000
    14  C    4.603838   4.302579   5.751040   0.000000
    15  H    5.365978   4.764916   6.206330   1.094065   0.000000
    16  H    5.076746   4.739456   6.148844   1.093432   1.764369
    17  H    4.816199   4.943265   6.364095   1.089370   1.748276
    18  C    2.787786   4.472627   5.270826   4.515153   5.288003
    19  H    3.770498   5.328304   6.126588   4.995443   5.641188
    20  H    3.142396   5.041892   5.752290   5.035097   5.927224
    21  H    2.214119   3.995141   4.555974   5.039773   5.758702
    22  C    4.058983   2.608478   1.509844   6.722387   7.081788
    23  H    4.393780   2.872195   2.177475   6.582026   6.967629
    24  H    4.740452   3.028906   2.154520   6.953411   7.150051
    25  H    4.499743   3.454772   2.108694   7.671152   8.086512
    26  C    4.607918   2.573189   3.150807   4.732698   4.820139
    27  H    4.978001   2.864860   3.044019   5.581175   5.587307
    28  H    4.872448   3.020891   3.373499   5.243082   5.463730
    29  H    5.383196   3.417351   4.180355   4.522652   4.405569
                   16         17         18         19         20
    16  H    0.000000
    17  H    1.747860   0.000000
    18  C    5.181182   4.072770   0.000000
    19  H    5.757344   4.394858   1.092121   0.000000
    20  H    5.521197   4.545026   1.093582   1.755280   0.000000
    21  H    5.735910   4.787188   1.086964   1.752572   1.754580
    22  C    6.988193   7.474978   6.759882   7.629893   7.200673
    23  H    6.680980   7.407979   7.111479   8.048350   7.470476
    24  H    7.289706   7.756109   7.293352   8.079145   7.856074
    25  H    7.934875   8.366057   7.225824   8.095588   7.588103
    26  C    4.862589   5.723985   6.740547   7.549068   7.307675
    27  H    5.829866   6.534498   7.210081   7.971274   7.843691
    28  H    5.175194   6.233476   7.178352   8.076171   7.607905
    29  H    4.593230   5.578693   7.228311   7.969998   7.834734
                   21         22         23         24         25
    21  H    0.000000
    22  C    6.061122   0.000000
    23  H    6.534187   1.087074   0.000000
    24  H    6.592628   1.090646   1.761326   0.000000
    25  H    6.432616   1.087212   1.773408   1.764300   0.000000
    26  C    6.445962   2.994379   2.625306   2.886329   4.065864
    27  H    6.780290   2.598034   2.477618   2.127479   3.628238
    28  H    6.889190   2.948168   2.210123   3.077085   3.913562
    29  H    7.056306   4.058296   3.661435   3.826900   5.126203
                   26         27         28         29
    26  C    0.000000
    27  H    1.084617   0.000000
    28  H    1.089833   1.761343   0.000000
    29  H    1.088822   1.751607   1.756431   0.000000
 Stoichiometry    C11H15NO2
 Framework group  C1[X(C11H15NO2)]
 Deg. of freedom    81
 Full point group                 C1      NOp   1
 RotChk:  IX=0 Diff= 6.79D-16
 Largest Abelian subgroup         C1      NOp   1
 Largest concise Abelian subgroup C1      NOp   1
                         Standard orientation:                         
 ---------------------------------------------------------------------
 Center     Atomic      Atomic             Coordinates (Angstroms)
 Number     Number       Type             X           Y           Z
 ---------------------------------------------------------------------
      1          8           0       -2.260097   -2.311275   -0.091371
      2          8           0        3.669676   -0.192274    0.185808
      3          7           0       -0.063252    1.802660   -0.102870
      4          1           0       -0.098207    2.808750   -0.106946
      5          6           0        1.293499   -0.141121   -0.033411
      6          6           0       -1.248497    1.135007   -0.065772
      7          6           0        1.193454    1.219928   -0.029444
      8          6           0        2.541121   -0.799231    0.053043
      9          6           0        0.052759   -0.992103   -0.170369
     10          1           0        0.066984   -1.524518   -1.127494
     11          1           0        0.052622   -1.772550    0.592092
     12          6           0       -1.246673   -0.226767   -0.054729
     13          6           0       -2.410389   -1.092252    0.018713
     14          6           0        2.299453    2.207948    0.041905
     15          1           0        2.252194    2.924651   -0.783373
     16          1           0        2.271275    2.777669    0.974760
     17          1           0        3.285232    1.746925   -0.007317
     18          6           0        2.723127   -2.286846   -0.020814
     19          1           0        3.482997   -2.580519   -0.748194
     20          1           0        3.037177   -2.690071    0.945987
     21          1           0        1.803270   -2.795881   -0.296925
     22          6           0       -3.812841   -0.582648    0.249059
     23          1           0       -3.871223    0.150945    1.049161
     24          1           0       -4.213490   -0.125272   -0.656367
     25          1           0       -4.433801   -1.438893    0.500620
     26          6           0       -2.430218    2.058008   -0.036588
     27          1           0       -3.209776    1.749312   -0.724622
     28          1           0       -2.861293    2.114925    0.962748
     29          1           0       -2.126600    3.064758   -0.319084
 ---------------------------------------------------------------------
 Rotational constants (GHZ):           1.1001271           0.4816514           0.3396021
 Leave Link  202 at Sat Jan 24 23:22:04 2026, MaxMem=  2147483648 cpu:               0.0 elap:               0.0
 (Enter /data/home/wyx/g16/l301.exe)
 Standard basis: TZVP (5D, 7F)
 Ernie: Thresh=  0.10000D-02 Tol=  0.10000D-05 Strict=F.
 There are   370 symmetry adapted cartesian basis functions of A   symmetry.
 There are   356 symmetry adapted basis functions of A   symmetry.
   356 basis functions,   610 primitive gaussians,   370 cartesian basis functions
    52 alpha electrons       52 beta electrons
       nuclear repulsion energy       898.4851849727 Hartrees.
 IExCor=20419 DFT=T Ex+Corr=CAM-B3LYP ExCW=0 ScaHFX=  1.000000
 ScaDFX=  1.000000  1.000000  1.000000  0.810000 ScalE2=  1.000000  1.000000
 IRadAn=      5 IRanWt=     -1 IRanGd=            0 ICorTp=0 IEmpDi=141
 HFx  wShort=  0.000000 wLong=  0.330000 cFull=  0.190000 cShort=  0.000000 cLong=  0.460000
 DFx  wShort=  0.000000 wLong=  0.330000 cFull=  0.190000 cShort=  0.000000 cLong=  0.460000
 NAtoms=   29 NActive=   29 NUniq=   29 SFac= 1.00D+00 NAtFMM=   60 NAOKFM=F Big=F
 Integral buffers will be    131072 words long.
 Raffenetti 2 integral format.
 Two-electron integral symmetry is turned on.
 R6Disp:  Grimme-D3(BJ) Dispersion energy=       -0.0260746237 Hartrees.
 Nuclear repulsion after empirical dispersion term =      898.4591103489 Hartrees.
 ------------------------------------------------------------------------------
 Polarizable Continuum Model (PCM)
 =================================
 Model                : PCM.
 Atomic radii         : UFF (Universal Force Field).
 Polarization charges : Total charges.
 Charge compensation  : None.
 Solution method      : On-the-fly selection.
 Cavity type          : Scaled VdW (van der Waals Surface) (Alpha=1.100).
 Cavity algorithm     : GePol (No added spheres)
                        Default sphere list used, NSphG=   29.
                        Lebedev-Laikov grids with approx.  5.0 points / Ang**2.
                        Smoothing algorithm: York/Karplus (Gamma=1.0000).
                        Polarization charges: spherical gaussians, with
                                              point-specific exponents (IZeta= 3).
                        Self-potential: point-specific (ISelfS= 7).
                        Self-field    : sphere-specific E.n sum rule (ISelfD= 2).
 Solvent              : Water, Eps=  78.355300 Eps(inf)=   1.777849
 ------------------------------------------------------------------------------
 GePol: Number of generator spheres                  =      29
 GePol: Total number of spheres                      =      29
 GePol: Number of exposed spheres                    =      29 (100.00%)
 GePol: Number of points                             =    2100
 GePol: Average weight of points                     =       0.13
 GePol: Minimum weight of points                     =   0.67D-09
 GePol: Maximum weight of points                     =    0.20577
 GePol: Number of points with low weight             =     126
 GePol: Fraction of low-weight points (<1% of avg)   =       6.00%
 GePol: Cavity surface area                          =    269.351 Ang**2
 GePol: Cavity volume                                =    286.760 Ang**3
 Leave Link  301 at Sat Jan 24 23:22:04 2026, MaxMem=  2147483648 cpu:               0.6 elap:               0.0
 (Enter /data/home/wyx/g16/l302.exe)
 NPDir=0 NMtPBC=     1 NCelOv=     1 NCel=       1 NClECP=     1 NCelD=      1
         NCelK=      1 NCelE2=     1 NClLst=     1 CellRange=     0.0.
 One-electron integrals computed using PRISM.
 One-electron integral symmetry used in STVInt
 NBasis=   356 RedAO= T EigKep=  3.87D-05  NBF=   356
 NBsUse=   356 1.00D-06 EigRej= -1.00D+00 NBFU=   356
 Precomputing XC quadrature grid using
 IXCGrd= 4 IRadAn=           5 IRanWt=          -1 IRanGd=           0 AccXCQ= 0.00D+00.
 Generated NRdTot=       0 NPtTot=           0 NUsed=           0 NTot=          32
 NSgBfM=   366   366   366   366   366 MxSgAt=    29 MxSgA2=    29.
 Leave Link  302 at Sat Jan 24 23:22:04 2026, MaxMem=  2147483648 cpu:               3.2 elap:               0.2
 (Enter /data/home/wyx/g16/l303.exe)
 DipDrv:  MaxL=1.
 Leave Link  303 at Sat Jan 24 23:22:04 2026, MaxMem=  2147483648 cpu:               0.6 elap:               0.0
 (Enter /data/home/wyx/g16/l401.exe)
 Initial guess from the checkpoint file:  "DDL-S2-cLR-gs-3.chk"
 B after Tr=    -0.000000   -0.000000   -0.000000
         Rot=    1.000000    0.000000    0.000000    0.000000 Ang=   0.00 deg.
 Guess basis will be translated and rotated to current coordinates.
 JPrj=2 DoOrth=T DoCkMO=T.
 Leave Link  401 at Sat Jan 24 23:22:04 2026, MaxMem=  2147483648 cpu:               2.2 elap:               0.2
 (Enter /data/home/wyx/g16/l502.exe)
 Integral symmetry usage will be decided dynamically.
 Closed shell SCF:
 Using DIIS extrapolation, IDIIS=  1040.
 NGot=  2147483648 LenX=  2147200095 LenY=  2147062754
 Requested convergence on RMS density matrix=1.00D-08 within 128 cycles.
 Requested convergence on MAX density matrix=1.00D-06.
 Requested convergence on             energy=1.00D-06.
 No special actions if energy rises.
 Fock matrices will be formed incrementally for  20 cycles.

 Cycle   1  Pass 1  IDiag  1:
 FoFJK:  IHMeth= 1 ICntrl=       0 DoSepK=T KAlg= 0 I1Cent=           0 FoldK=F
 IRaf=         1 NMat=       1 IRICut=       1 DoRegI=T DoRafI=F ISym2E= 0 IDoP0=0 IntGTp=1.
 FoFCou: FMM=F IPFlag=           0 FMFlag=      100000 FMFlg1=           0
         NFxFlg=           0 DoJE=T BraDBF=F KetDBF=F FulRan=T
         wScrn=  0.000000 ICntrl=       500 IOpCl=  0 I1Cent=           0 NGrid=           0
         NMat0=    1 NMatS0=      1 NMatT0=    0 NMatD0=    1 NMtDS0=    0 NMtDT0=    0
 Symmetry not used in FoFCou.
 Inv3:  Mode=1 IEnd=    13230000.
 Iteration    1 A*A^-1 deviation from unit magnitude is 3.44D-15 for    614.
 Iteration    1 A*A^-1 deviation from orthogonality  is 2.25D-15 for    716    205.
 Iteration    1 A^-1*A deviation from unit magnitude is 3.33D-15 for    738.
 Iteration    1 A^-1*A deviation from orthogonality  is 3.00D-15 for   1990     76.
 NEqPCM:  Using non-equilibrium solvation (IEInf=1, Eps=  78.3553, EpsInf=   1.7778)
 Inv3:  Mode=1 IEnd=    13230000.
 Iteration    1 A*A^-1 deviation from unit magnitude is 3.11D-15 for    222.
 Iteration    1 A*A^-1 deviation from orthogonality  is 2.30D-15 for   1753    196.
 Iteration    1 A^-1*A deviation from unit magnitude is 3.11D-15 for    545.
 Iteration    1 A^-1*A deviation from orthogonality  is 1.62D-15 for   1750    206.
 E= -633.316528045099    
 DIIS: error= 9.59D-04 at cycle   1 NSaved=   1.
 NSaved= 1 IEnMin= 1 EnMin= -633.316528045099     IErMin= 1 ErrMin= 9.59D-04
 ErrMax= 9.59D-04  0.00D+00 EMaxC= 1.00D-01 BMatC= 1.39D-04 BMatP= 1.39D-04
 IDIUse=3 WtCom= 9.90D-01 WtEn= 9.59D-03
 Coeff-Com:  0.100D+01
 Coeff-En:   0.100D+01
 Coeff:      0.100D+01
 Gap=     0.230 Goal=   None    Shift=    0.000
 RMSDP=4.63D-04 MaxDP=4.46D-02              OVMax= 1.43D-02

 Cycle   2  Pass 1  IDiag  1:
 RMSU=  4.50D-04    CP:  1.01D+00
 E= -633.316749977207     Delta-E=       -0.000221932108 Rises=F Damp=F
 DIIS: error= 6.72D-04 at cycle   2 NSaved=   2.
 NSaved= 2 IEnMin= 2 EnMin= -633.316749977207     IErMin= 2 ErrMin= 6.72D-04
 ErrMax= 6.72D-04  0.00D+00 EMaxC= 1.00D-01 BMatC= 1.76D-04 BMatP= 1.39D-04
 IDIUse=3 WtCom= 2.78D-01 WtEn= 7.22D-01
 Coeff-Com:  0.541D+00 0.459D+00
 Coeff-En:   0.000D+00 0.100D+01
 Coeff:      0.151D+00 0.849D+00
 Gap=     0.228 Goal=   None    Shift=    0.000
 RMSDP=3.22D-04 MaxDP=2.22D-02 DE=-2.22D-04 OVMax= 5.98D-03

 Cycle   3  Pass 1  IDiag  1:
 RMSU=  2.68D-04    CP:  9.98D-01  7.52D-01
 E= -633.316685035421     Delta-E=        0.000064941786 Rises=F Damp=F
 DIIS: error= 9.29D-04 at cycle   3 NSaved=   3.
 NSaved= 3 IEnMin= 2 EnMin= -633.316749977207     IErMin= 2 ErrMin= 6.72D-04
 ErrMax= 9.29D-04  0.00D+00 EMaxC= 1.00D-01 BMatC= 2.95D-04 BMatP= 1.39D-04
 IDIUse=3 WtCom= 2.47D-01 WtEn= 7.53D-01
 Coeff-Com:  0.833D-01 0.531D+00 0.385D+00
 Coeff-En:   0.000D+00 0.576D+00 0.424D+00
 Coeff:      0.206D-01 0.565D+00 0.414D+00
 Gap=     0.228 Goal=   None    Shift=    0.000
 RMSDP=1.05D-04 MaxDP=8.82D-03 DE= 6.49D-05 OVMax= 3.99D-03

 Cycle   4  Pass 1  IDiag  1:
 RMSU=  3.05D-05    CP:  1.00D+00  8.52D-01  7.19D-01
 E= -633.316901043740     Delta-E=       -0.000216008318 Rises=F Damp=F
 DIIS: error= 1.26D-04 at cycle   4 NSaved=   4.
 NSaved= 4 IEnMin= 4 EnMin= -633.316901043740     IErMin= 4 ErrMin= 1.26D-04
 ErrMax= 1.26D-04  0.00D+00 EMaxC= 1.00D-01 BMatC= 1.36D-06 BMatP= 1.39D-04
 IDIUse=3 WtCom= 9.99D-01 WtEn= 1.26D-03
 Coeff-Com: -0.102D-01 0.150D+00 0.117D+00 0.743D+00
 Coeff-En:   0.000D+00 0.000D+00 0.000D+00 0.100D+01
 Coeff:     -0.101D-01 0.150D+00 0.117D+00 0.743D+00
 Gap=     0.229 Goal=   None    Shift=    0.000
 RMSDP=2.17D-05 MaxDP=1.30D-03 DE=-2.16D-04 OVMax= 1.25D-03

 Cycle   5  Pass 1  IDiag  1:
 RMSU=  1.34D-05    CP:  1.00D+00  8.51D-01  7.78D-01  1.04D+00
 E= -633.316903224115     Delta-E=       -0.000002180375 Rises=F Damp=F
 DIIS: error= 3.69D-05 at cycle   5 NSaved=   5.
 NSaved= 5 IEnMin= 5 EnMin= -633.316903224115     IErMin= 5 ErrMin= 3.69D-05
 ErrMax= 3.69D-05  0.00D+00 EMaxC= 1.00D-01 BMatC= 4.52D-07 BMatP= 1.36D-06
 IDIUse=1 WtCom= 1.00D+00 WtEn= 0.00D+00
 Coeff-Com: -0.141D-01-0.162D-01-0.371D-02 0.345D+00 0.689D+00
 Coeff:     -0.141D-01-0.162D-01-0.371D-02 0.345D+00 0.689D+00
 Gap=     0.229 Goal=   None    Shift=    0.000
 RMSDP=1.21D-05 MaxDP=6.41D-04 DE=-2.18D-06 OVMax= 5.16D-04

 Cycle   6  Pass 1  IDiag  1:
 RMSU=  3.97D-06    CP:  1.00D+00  8.44D-01  8.12D-01  1.18D+00  1.10D+00
 E= -633.316903959893     Delta-E=       -0.000000735778 Rises=F Damp=F
 DIIS: error= 2.89D-05 at cycle   6 NSaved=   6.
 NSaved= 6 IEnMin= 6 EnMin= -633.316903959893     IErMin= 6 ErrMin= 2.89D-05
 ErrMax= 2.89D-05  0.00D+00 EMaxC= 1.00D-01 BMatC= 5.71D-08 BMatP= 4.52D-07
 IDIUse=1 WtCom= 1.00D+00 WtEn= 0.00D+00
 Coeff-Com: -0.150D-02-0.300D-01-0.155D-01 0.370D-02 0.194D+00 0.849D+00
 Coeff:     -0.150D-02-0.300D-01-0.155D-01 0.370D-02 0.194D+00 0.849D+00
 Gap=     0.229 Goal=   None    Shift=    0.000
 RMSDP=5.98D-06 MaxDP=2.91D-04 DE=-7.36D-07 OVMax= 4.00D-04

 Cycle   7  Pass 1  IDiag  1:
 RMSU=  2.27D-06    CP:  1.00D+00  8.38D-01  8.27D-01  1.26D+00  1.19D+00
                    CP:  1.19D+00
 E= -633.316904114749     Delta-E=       -0.000000154856 Rises=F Damp=F
 DIIS: error= 1.10D-05 at cycle   7 NSaved=   7.
 NSaved= 7 IEnMin= 7 EnMin= -633.316904114749     IErMin= 7 ErrMin= 1.10D-05
 ErrMax= 1.10D-05  0.00D+00 EMaxC= 1.00D-01 BMatC= 2.49D-08 BMatP= 5.71D-08
 IDIUse=1 WtCom= 1.00D+00 WtEn= 0.00D+00
 Coeff-Com:  0.254D-02-0.117D-01-0.454D-02-0.726D-01-0.925D-01 0.432D+00
 Coeff-Com:  0.747D+00
 Coeff:      0.254D-02-0.117D-01-0.454D-02-0.726D-01-0.925D-01 0.432D+00
 Coeff:      0.747D+00
 Gap=     0.229 Goal=   None    Shift=    0.000
 RMSDP=2.46D-06 MaxDP=1.21D-04 DE=-1.55D-07 OVMax= 2.11D-04

 Cycle   8  Pass 1  IDiag  1:
 RMSU=  7.90D-07    CP:  1.00D+00  8.36D-01  8.32D-01  1.28D+00  1.25D+00
                    CP:  1.39D+00  1.11D+00
 E= -633.316904162377     Delta-E=       -0.000000047628 Rises=F Damp=F
 DIIS: error= 3.15D-06 at cycle   8 NSaved=   8.
 NSaved= 8 IEnMin= 8 EnMin= -633.316904162377     IErMin= 8 ErrMin= 3.15D-06
 ErrMax= 3.15D-06  0.00D+00 EMaxC= 1.00D-01 BMatC= 2.68D-09 BMatP= 2.49D-08
 IDIUse=1 WtCom= 1.00D+00 WtEn= 0.00D+00
 Coeff-Com:  0.116D-02-0.284D-03 0.113D-02-0.261D-01-0.789D-01 0.256D-01
 Coeff-Com:  0.278D+00 0.800D+00
 Coeff:      0.116D-02-0.284D-03 0.113D-02-0.261D-01-0.789D-01 0.256D-01
 Coeff:      0.278D+00 0.800D+00
 Gap=     0.229 Goal=   None    Shift=    0.000
 RMSDP=9.48D-07 MaxDP=3.79D-05 DE=-4.76D-08 OVMax= 7.46D-05

 Cycle   9  Pass 1  IDiag  1:
 RMSU=  2.87D-07    CP:  1.00D+00  8.35D-01  8.33D-01  1.29D+00  1.26D+00
                    CP:  1.49D+00  1.34D+00  1.15D+00
 E= -633.316904167638     Delta-E=       -0.000000005261 Rises=F Damp=F
 DIIS: error= 1.29D-06 at cycle   9 NSaved=   9.
 NSaved= 9 IEnMin= 9 EnMin= -633.316904167638     IErMin= 9 ErrMin= 1.29D-06
 ErrMax= 1.29D-06  0.00D+00 EMaxC= 1.00D-01 BMatC= 3.34D-10 BMatP= 2.68D-09
 IDIUse=1 WtCom= 1.00D+00 WtEn= 0.00D+00
 Coeff-Com:  0.158D-03 0.150D-02 0.110D-02 0.122D-02-0.197D-01-0.504D-01
 Coeff-Com:  0.162D-01 0.340D+00 0.710D+00
 Coeff:      0.158D-03 0.150D-02 0.110D-02 0.122D-02-0.197D-01-0.504D-01
 Coeff:      0.162D-01 0.340D+00 0.710D+00
 Gap=     0.229 Goal=   None    Shift=    0.000
 RMSDP=2.56D-07 MaxDP=1.26D-05 DE=-5.26D-09 OVMax= 2.12D-05

 Cycle  10  Pass 1  IDiag  1:
 RMSU=  1.14D-07    CP:  1.00D+00  8.35D-01  8.33D-01  1.29D+00  1.25D+00
                    CP:  1.50D+00  1.38D+00  1.26D+00  9.27D-01
 E= -633.316904168155     Delta-E=       -0.000000000517 Rises=F Damp=F
 DIIS: error= 4.26D-07 at cycle  10 NSaved=  10.
 NSaved=10 IEnMin=10 EnMin= -633.316904168155     IErMin=10 ErrMin= 4.26D-07
 ErrMax= 4.26D-07  0.00D+00 EMaxC= 1.00D-01 BMatC= 8.57D-11 BMatP= 3.34D-10
 IDIUse=1 WtCom= 1.00D+00 WtEn= 0.00D+00
 Coeff-Com: -0.645D-04 0.769D-03 0.296D-03 0.379D-02-0.983D-03-0.295D-01
 Coeff-Com: -0.219D-01 0.595D-01 0.362D+00 0.626D+00
 Coeff:     -0.645D-04 0.769D-03 0.296D-03 0.379D-02-0.983D-03-0.295D-01
 Coeff:     -0.219D-01 0.595D-01 0.362D+00 0.626D+00
 Gap=     0.229 Goal=   None    Shift=    0.000
 RMSDP=1.41D-07 MaxDP=1.12D-05 DE=-5.17D-10 OVMax= 5.96D-06

 Cycle  11  Pass 1  IDiag  1:
 RMSU=  4.99D-08    CP:  1.00D+00  8.35D-01  8.33D-01  1.29D+00  1.25D+00
                    CP:  1.51D+00  1.41D+00  1.27D+00  1.09D+00  9.13D-01
 E= -633.316904168240     Delta-E=       -0.000000000085 Rises=F Damp=F
 DIIS: error= 1.83D-07 at cycle  11 NSaved=  11.
 NSaved=11 IEnMin=11 EnMin= -633.316904168240     IErMin=11 ErrMin= 1.83D-07
 ErrMax= 1.83D-07  0.00D+00 EMaxC= 1.00D-01 BMatC= 1.36D-11 BMatP= 8.57D-11
 IDIUse=1 WtCom= 1.00D+00 WtEn= 0.00D+00
 Coeff-Com: -0.609D-04 0.102D-03-0.137D-03 0.172D-02 0.402D-02-0.384D-02
 Coeff-Com: -0.130D-01-0.514D-01 0.375D-01 0.284D+00 0.741D+00
 Coeff:     -0.609D-04 0.102D-03-0.137D-03 0.172D-02 0.402D-02-0.384D-02
 Coeff:     -0.130D-01-0.514D-01 0.375D-01 0.284D+00 0.741D+00
 Gap=     0.229 Goal=   None    Shift=    0.000
 RMSDP=5.85D-08 MaxDP=4.31D-06 DE=-8.55D-11 OVMax= 2.49D-06

 Cycle  12  Pass 1  IDiag  1:
 RMSU=  1.55D-08    CP:  1.00D+00  8.35D-01  8.32D-01  1.29D+00  1.25D+00
                    CP:  1.51D+00  1.42D+00  1.29D+00  1.13D+00  1.04D+00
                    CP:  1.00D+00
 E= -633.316904168250     Delta-E=       -0.000000000010 Rises=F Damp=F
 DIIS: error= 5.18D-08 at cycle  12 NSaved=  12.
 NSaved=12 IEnMin=12 EnMin= -633.316904168250     IErMin=12 ErrMin= 5.18D-08
 ErrMax= 5.18D-08  0.00D+00 EMaxC= 1.00D-01 BMatC= 1.32D-12 BMatP= 1.36D-11
 IDIUse=1 WtCom= 1.00D+00 WtEn= 0.00D+00
 Coeff-Com: -0.165D-04-0.303D-04-0.851D-04 0.208D-03 0.150D-02 0.202D-02
 Coeff-Com: -0.734D-03-0.256D-01-0.237D-01 0.211D-01 0.263D+00 0.762D+00
 Coeff:     -0.165D-04-0.303D-04-0.851D-04 0.208D-03 0.150D-02 0.202D-02
 Coeff:     -0.734D-03-0.256D-01-0.237D-01 0.211D-01 0.263D+00 0.762D+00
 Gap=     0.229 Goal=   None    Shift=    0.000
 RMSDP=1.73D-08 MaxDP=1.43D-06 DE=-1.00D-11 OVMax= 7.53D-07

 Cycle  13  Pass 1  IDiag  1:
 RMSU=  5.56D-09    CP:  1.00D+00  8.35D-01  8.32D-01  1.29D+00  1.25D+00
                    CP:  1.51D+00  1.42D+00  1.29D+00  1.15D+00  1.05D+00
                    CP:  1.12D+00  1.12D+00
 E= -633.316904168256     Delta-E=       -0.000000000006 Rises=F Damp=F
 DIIS: error= 2.02D-08 at cycle  13 NSaved=  13.
 NSaved=13 IEnMin=13 EnMin= -633.316904168256     IErMin=13 ErrMin= 2.02D-08
 ErrMax= 2.02D-08  0.00D+00 EMaxC= 1.00D-01 BMatC= 2.31D-13 BMatP= 1.32D-12
 IDIUse=1 WtCom= 1.00D+00 WtEn= 0.00D+00
 Coeff-Com: -0.131D-06-0.244D-04-0.190D-04-0.175D-03 0.925D-04 0.117D-02
 Coeff-Com:  0.146D-02-0.505D-02-0.166D-01-0.377D-01-0.360D-02 0.335D+00
 Coeff-Com:  0.726D+00
 Coeff:     -0.131D-06-0.244D-04-0.190D-04-0.175D-03 0.925D-04 0.117D-02
 Coeff:      0.146D-02-0.505D-02-0.166D-01-0.377D-01-0.360D-02 0.335D+00
 Coeff:      0.726D+00
 Gap=     0.229 Goal=   None    Shift=    0.000
 RMSDP=6.93D-09 MaxDP=3.07D-07 DE=-6.37D-12 OVMax= 3.66D-07

 Error on total polarization charges =  0.00854
 SCF Done:  E(RCAM-B3LYP) =  -633.316904168     A.U. after   13 cycles
            NFock= 13  Conv=0.69D-08     -V/T= 2.0043
 KE= 6.306100943058D+02 PE=-3.272969149523D+03 EE= 1.110583040700D+03
 Leave Link  502 at Sat Jan 24 23:22:57 2026, MaxMem=  2147483648 cpu:             821.5 elap:              52.1
 (Enter /data/home/wyx/g16/l601.exe)
 Copying SCF densities to generalized density rwf, IOpCl= 0 IROHF=0.

 **********************************************************************

            Population analysis using the SCF density.

 **********************************************************************

 Orbital symmetries:
       Occupied  (A) (A) (A) (A) (A) (A) (A) (A) (A) (A) (A) (A)
                 (A) (A) (A) (A) (A) (A) (A) (A) (A) (A) (A) (A)
                 (A) (A) (A) (A) (A) (A) (A) (A) (A) (A) (A) (A)
                 (A) (A) (A) (A) (A) (A) (A) (A) (A) (A) (A) (A)
                 (A) (A) (A) (A)
       Virtual   (A) (A) (A) (A) (A) (A) (A) (A) (A) (A) (A) (A)
                 (A) (A) (A) (A) (A) (A) (A) (A) (A) (A) (A) (A)
                 (A) (A) (A) (A) (A) (A) (A) (A) (A) (A) (A) (A)
                 (A) (A) (A) (A) (A) (A) (A) (A) (A) (A) (A) (A)
                 (A) (A) (A) (A) (A) (A) (A) (A) (A) (A) (A) (A)
                 (A) (A) (A) (A) (A) (A) (A) (A) (A) (A) (A) (A)
                 (A) (A) (A) (A) (A) (A) (A) (A) (A) (A) (A) (A)
                 (A) (A) (A) (A) (A) (A) (A) (A) (A) (A) (A) (A)
                 (A) (A) (A) (A) (A) (A) (A) (A) (A) (A) (A) (A)
                 (A) (A) (A) (A) (A) (A) (A) (A) (A) (A) (A) (A)
                 (A) (A) (A) (A) (A) (A) (A) (A) (A) (A) (A) (A)
                 (A) (A) (A) (A) (A) (A) (A) (A) (A) (A) (A) (A)
                 (A) (A) (A) (A) (A) (A) (A) (A) (A) (A) (A) (A)
                 (A) (A) (A) (A) (A) (A) (A) (A) (A) (A) (A) (A)
                 (A) (A) (A) (A) (A) (A) (A) (A) (A) (A) (A) (A)
                 (A) (A) (A) (A) (A) (A) (A) (A) (A) (A) (A) (A)
                 (A) (A) (A) (A) (A) (A) (A) (A) (A) (A) (A) (A)
                 (A) (A) (A) (A) (A) (A) (A) (A) (A) (A) (A) (A)
                 (A) (A) (A) (A) (A) (A) (A) (A) (A) (A) (A) (A)
                 (A) (A) (A) (A) (A) (A) (A) (A) (A) (A) (A) (A)
                 (A) (A) (A) (A) (A) (A) (A) (A) (A) (A) (A) (A)
                 (A) (A) (A) (A) (A) (A) (A) (A) (A) (A) (A) (A)
                 (A) (A) (A) (A) (A) (A) (A) (A) (A) (A) (A) (A)
                 (A) (A) (A) (A) (A) (A) (A) (A) (A) (A) (A) (A)
                 (A) (A) (A) (A) (A) (A) (A) (A) (A) (A) (A) (A)
                 (A) (A) (A) (A)
 The electronic state is 1-A.
 Alpha  occ. eigenvalues --  -19.18205 -19.16191 -14.44787 -10.33765 -10.33065
 Alpha  occ. eigenvalues --  -10.32849 -10.32626 -10.26227 -10.25512 -10.25492
 Alpha  occ. eigenvalues --  -10.25450 -10.24561 -10.24064 -10.23512  -1.12165
 Alpha  occ. eigenvalues --   -1.08573  -1.07702  -0.91764  -0.90883  -0.84068
 Alpha  occ. eigenvalues --   -0.82641  -0.81699  -0.78770  -0.74633  -0.71809
 Alpha  occ. eigenvalues --   -0.69464  -0.62249  -0.58694  -0.57192  -0.55467
 Alpha  occ. eigenvalues --   -0.54954  -0.54206  -0.52493  -0.51997  -0.50878
 Alpha  occ. eigenvalues --   -0.49984  -0.49292  -0.49146  -0.48586  -0.48126
 Alpha  occ. eigenvalues --   -0.46601  -0.45208  -0.44692  -0.43940  -0.43240
 Alpha  occ. eigenvalues --   -0.42789  -0.41750  -0.40344  -0.33155  -0.32659
 Alpha  occ. eigenvalues --   -0.30241  -0.26582
 Alpha virt. eigenvalues --   -0.03726   0.01573   0.06207   0.08289   0.08526
 Alpha virt. eigenvalues --    0.09803   0.10822   0.11493   0.12574   0.12980
 Alpha virt. eigenvalues --    0.14433   0.15071   0.15241   0.16520   0.16948
 Alpha virt. eigenvalues --    0.17353   0.17619   0.18161   0.18727   0.19355
 Alpha virt. eigenvalues --    0.19646   0.20192   0.22302   0.22944   0.24076
 Alpha virt. eigenvalues --    0.24142   0.24572   0.25441   0.25639   0.26208
 Alpha virt. eigenvalues --    0.27428   0.27840   0.28314   0.29164   0.29808
 Alpha virt. eigenvalues --    0.30893   0.31381   0.33376   0.33616   0.34716
 Alpha virt. eigenvalues --    0.35222   0.35834   0.36902   0.37203   0.37609
 Alpha virt. eigenvalues --    0.39873   0.40558   0.40906   0.42065   0.43002
 Alpha virt. eigenvalues --    0.43946   0.45140   0.45170   0.46048   0.46266
 Alpha virt. eigenvalues --    0.47450   0.47765   0.48125   0.48468   0.48780
 Alpha virt. eigenvalues --    0.49161   0.50053   0.50587   0.51398   0.51710
 Alpha virt. eigenvalues --    0.52477   0.52638   0.53021   0.53744   0.53809
 Alpha virt. eigenvalues --    0.54561   0.55388   0.55610   0.57477   0.57739
 Alpha virt. eigenvalues --    0.58583   0.59031   0.60276   0.62094   0.62510
 Alpha virt. eigenvalues --    0.63335   0.64864   0.66595   0.67290   0.67378
 Alpha virt. eigenvalues --    0.68170   0.68795   0.70726   0.71338   0.71780
 Alpha virt. eigenvalues --    0.73371   0.75068   0.76345   0.76996   0.78570
 Alpha virt. eigenvalues --    0.79757   0.81022   0.83543   0.87308   0.88687
 Alpha virt. eigenvalues --    0.91691   0.94850   0.99727   1.01953   1.20944
 Alpha virt. eigenvalues --    1.22882   1.25030   1.26806   1.29801   1.30861
 Alpha virt. eigenvalues --    1.32045   1.32940   1.34066   1.35586   1.36532
 Alpha virt. eigenvalues --    1.37367   1.37886   1.39117   1.39471   1.39840
 Alpha virt. eigenvalues --    1.40259   1.40816   1.40856   1.41425   1.41649
 Alpha virt. eigenvalues --    1.42650   1.43095   1.44537   1.45191   1.45667
 Alpha virt. eigenvalues --    1.48391   1.49431   1.49748   1.50605   1.51130
 Alpha virt. eigenvalues --    1.51836   1.52182   1.54234   1.56880   1.57615
 Alpha virt. eigenvalues --    1.59386   1.59686   1.60019   1.60889   1.61687
 Alpha virt. eigenvalues --    1.62800   1.62945   1.63364   1.63590   1.64662
 Alpha virt. eigenvalues --    1.65323   1.65867   1.66293   1.67410   1.67855
 Alpha virt. eigenvalues --    1.68649   1.68838   1.69875   1.71021   1.72779
 Alpha virt. eigenvalues --    1.73303   1.73772   1.75739   1.75960   1.80199
 Alpha virt. eigenvalues --    1.81570   1.82847   1.84164   1.84679   1.85743
 Alpha virt. eigenvalues --    1.86178   1.86664   1.89449   1.89940   1.90275
 Alpha virt. eigenvalues --    1.91204   1.92884   1.96874   1.98218   2.01244
 Alpha virt. eigenvalues --    2.02469   2.04643   2.05874   2.07418   2.09735
 Alpha virt. eigenvalues --    2.10336   2.13535   2.14779   2.18921   2.19795
 Alpha virt. eigenvalues --    2.20471   2.23028   2.23816   2.24900   2.25946
 Alpha virt. eigenvalues --    2.27450   2.29154   2.29639   2.31601   2.32901
 Alpha virt. eigenvalues --    2.33936   2.34821   2.36203   2.37975   2.38577
 Alpha virt. eigenvalues --    2.39860   2.41125   2.42901   2.43318   2.45653
 Alpha virt. eigenvalues --    2.46834   2.47067   2.49315   2.49639   2.51018
 Alpha virt. eigenvalues --    2.52956   2.53825   2.54723   2.56358   2.56722
 Alpha virt. eigenvalues --    2.57822   2.59428   2.61385   2.62323   2.63038
 Alpha virt. eigenvalues --    2.63689   2.65261   2.65709   2.66598   2.68056
 Alpha virt. eigenvalues --    2.68511   2.71356   2.73739   2.74378   2.74985
 Alpha virt. eigenvalues --    2.76137   2.76650   2.77106   2.77962   2.78715
 Alpha virt. eigenvalues --    2.80624   2.80979   2.83002   2.84024   2.84960
 Alpha virt. eigenvalues --    2.85274   2.87801   2.89291   2.90889   2.92795
 Alpha virt. eigenvalues --    2.97795   2.98677   2.99191   3.03734   3.08633
 Alpha virt. eigenvalues --    3.11464   3.12049   3.14040   3.19319   3.19614
 Alpha virt. eigenvalues --    3.21035   3.22160   3.24737   3.25440   3.25861
 Alpha virt. eigenvalues --    3.28908   3.30471   3.30939   3.35289   3.37288
 Alpha virt. eigenvalues --    3.39099   3.39519   3.40125   3.40610   3.41360
 Alpha virt. eigenvalues --    3.42079   3.43668   3.45130   3.46594   3.49446
 Alpha virt. eigenvalues --    3.51299   3.51877   3.54884   3.58176   3.59360
 Alpha virt. eigenvalues --    3.61796   3.91774   3.99688   4.29577   4.35013
 Alpha virt. eigenvalues --   21.64196  21.76323  22.05081  22.10121  22.11870
 Alpha virt. eigenvalues --   22.12827  22.15699  22.18700  22.20495  22.26190
 Alpha virt. eigenvalues --   22.31089  31.92773  43.63977  43.67636
          Condensed to atoms (all electrons):
               1          2          3          4          5          6
     1  O    7.952747   0.000000  -0.000233   0.000017   0.017582   0.016301
     2  O    0.000000   8.078479   0.000822   0.000025  -0.181996   0.001561
     3  N   -0.000233   0.000822   6.357484   0.370832  -0.094506   0.387165
     4  H    0.000017   0.000025   0.370832   0.392559   0.011057  -0.041454
     5  C    0.017582  -0.181996  -0.094506   0.011057   7.194740  -0.048939
     6  C    0.016301   0.001561   0.387165  -0.041454  -0.048939   5.598803
     7  C    0.000032   0.003421   0.340821  -0.042768   0.303547  -0.149534
     8  C   -0.000269   0.606617   0.004704  -0.001222  -0.431315   0.046996
     9  C   -0.008125   0.023469   0.019935   0.000894  -0.686195  -0.087155
    10  H    0.005698  -0.000046   0.002148   0.000022  -0.034653  -0.006207
    11  H    0.010810  -0.000214  -0.001063  -0.000001  -0.118138   0.023296
    12  C   -0.250112  -0.003641  -0.108834   0.017970   0.222678  -0.169575
    13  C    0.735740   0.000004  -0.000505   0.000505   0.064657   0.126156
    14  C   -0.000014  -0.081187  -0.048662   0.002323   0.032104  -0.005023
    15  H    0.000000   0.004235   0.001751  -0.000002  -0.004799   0.002651
    16  H    0.000000   0.002151  -0.001592  -0.000004  -0.014456   0.001405
    17  H    0.000000   0.039481   0.003604   0.000649   0.009878  -0.000167
    18  C   -0.000327  -0.090095  -0.000283   0.000015  -0.149515  -0.002428
    19  H    0.000000   0.000422   0.000009  -0.000001   0.001366   0.000048
    20  H    0.000011  -0.001462   0.000011  -0.000001  -0.010020   0.000106
    21  H    0.000774   0.007484   0.000068  -0.000000   0.081656  -0.001513
    22  C   -0.118018   0.000000   0.000288   0.000105   0.000631  -0.009650
    23  H    0.004106  -0.000000   0.000034  -0.000051  -0.000384  -0.027160
    24  H    0.002130   0.000000   0.000077  -0.000015  -0.000072   0.009490
    25  H    0.009899  -0.000000   0.000024  -0.000002  -0.000082  -0.001411
    26  C    0.000866   0.000008  -0.027988  -0.010220   0.001570   0.194843
    27  H   -0.000135  -0.000000   0.000757   0.000899   0.000301  -0.037435
    28  H   -0.000031  -0.000000  -0.002991   0.000555   0.000479  -0.038259
    29  H    0.000020   0.000000   0.003275   0.001932  -0.000560  -0.052914
               7          8          9         10         11         12
     1  O    0.000032  -0.000269  -0.008125   0.005698   0.010810  -0.250112
     2  O    0.003421   0.606617   0.023469  -0.000046  -0.000214  -0.003641
     3  N    0.340821   0.004704   0.019935   0.002148  -0.001063  -0.108834
     4  H   -0.042768  -0.001222   0.000894   0.000022  -0.000001   0.017970
     5  C    0.303547  -0.431315  -0.686195  -0.034653  -0.118138   0.222678
     6  C   -0.149534   0.046996  -0.087155  -0.006207   0.023296  -0.169575
     7  C    5.552413  -0.225056  -0.263977  -0.002116   0.014079   0.056300
     8  C   -0.225056   5.692815   0.196180  -0.003791   0.000559  -0.091794
     9  C   -0.263977   0.196180   6.558661   0.411865   0.536129  -0.188979
    10  H   -0.002116  -0.003791   0.411865   0.548643  -0.039772  -0.026976
    11  H    0.014079   0.000559   0.536129  -0.039772   0.515295  -0.094504
    12  C    0.056300  -0.091794  -0.188979  -0.026976  -0.094504   7.567910
    13  C    0.025368  -0.009910  -0.231693  -0.006481  -0.002458  -0.498078
    14  C    0.189206  -0.095803   0.022774  -0.000932   0.000171   0.003535
    15  H   -0.043123   0.007105  -0.001385   0.000125  -0.000009  -0.000440
    16  H   -0.024313   0.006794  -0.000081  -0.000031   0.000053  -0.000791
    17  H   -0.055067  -0.027363   0.001877   0.000032  -0.000038  -0.000276
    18  C    0.028808   0.286942  -0.016604  -0.007102  -0.009605   0.012134
    19  H   -0.000756  -0.025386  -0.001891   0.000485   0.000513  -0.000224
    20  H   -0.001455  -0.009888  -0.001044   0.000298   0.000170  -0.000828
    21  H    0.005388  -0.142907  -0.016473  -0.003415  -0.005071   0.006280
    22  C    0.001197  -0.000054   0.015084   0.001429   0.000159  -0.297643
    23  H   -0.000009   0.000000   0.001994  -0.000151   0.000023   0.052818
    24  H   -0.000041   0.000002  -0.002199   0.000164  -0.000119  -0.000991
    25  H    0.000009   0.000000  -0.000113  -0.000067  -0.000061   0.027690
    26  C    0.003651   0.000876   0.020452  -0.000380   0.000035  -0.084935
    27  H   -0.000920  -0.000003  -0.000844  -0.000044   0.000015  -0.003399
    28  H   -0.001278  -0.000006  -0.000333  -0.000012   0.000049  -0.018210
    29  H    0.003415   0.000016  -0.000570   0.000047  -0.000008   0.024245
              13         14         15         16         17         18
     1  O    0.735740  -0.000014   0.000000   0.000000   0.000000  -0.000327
     2  O    0.000004  -0.081187   0.004235   0.002151   0.039481  -0.090095
     3  N   -0.000505  -0.048662   0.001751  -0.001592   0.003604  -0.000283
     4  H    0.000505   0.002323  -0.000002  -0.000004   0.000649   0.000015
     5  C    0.064657   0.032104  -0.004799  -0.014456   0.009878  -0.149515
     6  C    0.126156  -0.005023   0.002651   0.001405  -0.000167  -0.002428
     7  C    0.025368   0.189206  -0.043123  -0.024313  -0.055067   0.028808
     8  C   -0.009910  -0.095803   0.007105   0.006794  -0.027363   0.286942
     9  C   -0.231693   0.022774  -0.001385  -0.000081   0.001877  -0.016604
    10  H   -0.006481  -0.000932   0.000125  -0.000031   0.000032  -0.007102
    11  H   -0.002458   0.000171  -0.000009   0.000053  -0.000038  -0.009605
    12  C   -0.498078   0.003535  -0.000440  -0.000791  -0.000276   0.012134
    13  C    5.539795  -0.000066  -0.000020  -0.000027   0.000004   0.001008
    14  C   -0.000066   5.302020   0.385110   0.392423   0.415266  -0.003946
    15  H   -0.000020   0.385110   0.549873  -0.031661  -0.017674   0.000156
    16  H   -0.000027   0.392423  -0.031661   0.521865  -0.013518   0.000106
    17  H    0.000004   0.415266  -0.017674  -0.013518   0.432377   0.001637
    18  C    0.001008  -0.003946   0.000156   0.000106   0.001637   5.180827
    19  H   -0.000023  -0.000032   0.000005  -0.000008   0.000034   0.407590
    20  H   -0.000036  -0.000115  -0.000007   0.000013  -0.000001   0.396137
    21  H    0.002084   0.000524  -0.000022  -0.000007  -0.000189   0.411453
    22  C    0.320207   0.000019   0.000001  -0.000002   0.000000   0.000018
    23  H   -0.076648   0.000002  -0.000000   0.000000   0.000000   0.000001
    24  H   -0.035756  -0.000001   0.000000  -0.000000  -0.000000  -0.000001
    25  H   -0.047215   0.000000   0.000000  -0.000000  -0.000000   0.000000
    26  C   -0.053475  -0.000080  -0.000219   0.000042   0.000008  -0.000022
    27  H   -0.007215   0.000028  -0.000007   0.000006  -0.000001   0.000000
    28  H    0.006242  -0.000063   0.000013  -0.000016   0.000001  -0.000000
    29  H   -0.000209   0.000380   0.000015   0.000017   0.000002   0.000001
              19         20         21         22         23         24
     1  O    0.000000   0.000011   0.000774  -0.118018   0.004106   0.002130
     2  O    0.000422  -0.001462   0.007484   0.000000  -0.000000   0.000000
     3  N    0.000009   0.000011   0.000068   0.000288   0.000034   0.000077
     4  H   -0.000001  -0.000001  -0.000000   0.000105  -0.000051  -0.000015
     5  C    0.001366  -0.010020   0.081656   0.000631  -0.000384  -0.000072
     6  C    0.000048   0.000106  -0.001513  -0.009650  -0.027160   0.009490
     7  C   -0.000756  -0.001455   0.005388   0.001197  -0.000009  -0.000041
     8  C   -0.025386  -0.009888  -0.142907  -0.000054   0.000000   0.000002
     9  C   -0.001891  -0.001044  -0.016473   0.015084   0.001994  -0.002199
    10  H    0.000485   0.000298  -0.003415   0.001429  -0.000151   0.000164
    11  H    0.000513   0.000170  -0.005071   0.000159   0.000023  -0.000119
    12  C   -0.000224  -0.000828   0.006280  -0.297643   0.052818  -0.000991
    13  C   -0.000023  -0.000036   0.002084   0.320207  -0.076648  -0.035756
    14  C   -0.000032  -0.000115   0.000524   0.000019   0.000002  -0.000001
    15  H    0.000005  -0.000007  -0.000022   0.000001  -0.000000   0.000000
    16  H   -0.000008   0.000013  -0.000007  -0.000002   0.000000  -0.000000
    17  H    0.000034  -0.000001  -0.000189   0.000000   0.000000  -0.000000
    18  C    0.407590   0.396137   0.411453   0.000018   0.000001  -0.000001
    19  H    0.493648  -0.014718  -0.026750  -0.000000   0.000000   0.000000
    20  H   -0.014718   0.496723  -0.021341  -0.000001   0.000000   0.000000
    21  H   -0.026750  -0.021341   0.551946   0.000052  -0.000001  -0.000001
    22  C   -0.000000  -0.000001   0.000052   5.435590   0.387313   0.405344
    23  H    0.000000   0.000000  -0.000001   0.387313   0.545129  -0.029220
    24  H    0.000000   0.000000  -0.000001   0.405344  -0.029220   0.496489
    25  H   -0.000000   0.000000  -0.000001   0.381839  -0.020709  -0.008061
    26  C    0.000000   0.000001  -0.000015  -0.039301   0.020079  -0.015703
    27  H   -0.000000   0.000000   0.000000   0.011416  -0.008797  -0.001090
    28  H    0.000000  -0.000000   0.000000  -0.013037  -0.002135   0.001542
    29  H    0.000000  -0.000000  -0.000000   0.001773   0.000726   0.000174
              25         26         27         28         29
     1  O    0.009899   0.000866  -0.000135  -0.000031   0.000020
     2  O   -0.000000   0.000008  -0.000000  -0.000000   0.000000
     3  N    0.000024  -0.027988   0.000757  -0.002991   0.003275
     4  H   -0.000002  -0.010220   0.000899   0.000555   0.001932
     5  C   -0.000082   0.001570   0.000301   0.000479  -0.000560
     6  C   -0.001411   0.194843  -0.037435  -0.038259  -0.052914
     7  C    0.000009   0.003651  -0.000920  -0.001278   0.003415
     8  C    0.000000   0.000876  -0.000003  -0.000006   0.000016
     9  C   -0.000113   0.020452  -0.000844  -0.000333  -0.000570
    10  H   -0.000067  -0.000380  -0.000044  -0.000012   0.000047
    11  H   -0.000061   0.000035   0.000015   0.000049  -0.000008
    12  C    0.027690  -0.084935  -0.003399  -0.018210   0.024245
    13  C   -0.047215  -0.053475  -0.007215   0.006242  -0.000209
    14  C    0.000000  -0.000080   0.000028  -0.000063   0.000380
    15  H    0.000000  -0.000219  -0.000007   0.000013   0.000015
    16  H   -0.000000   0.000042   0.000006  -0.000016   0.000017
    17  H   -0.000000   0.000008  -0.000001   0.000001   0.000002
    18  C    0.000000  -0.000022   0.000000  -0.000000   0.000001
    19  H   -0.000000   0.000000  -0.000000   0.000000   0.000000
    20  H    0.000000   0.000001   0.000000  -0.000000  -0.000000
    21  H   -0.000001  -0.000015   0.000000   0.000000  -0.000000
    22  C    0.381839  -0.039301   0.011416  -0.013037   0.001773
    23  H   -0.020709   0.020079  -0.008797  -0.002135   0.000726
    24  H   -0.008061  -0.015703  -0.001090   0.001542   0.000174
    25  H    0.498282   0.001861   0.000710   0.000103  -0.000046
    26  C    0.001861   5.247869   0.415028   0.437392   0.388349
    27  H    0.000710   0.415028   0.512432  -0.028385  -0.024468
    28  H    0.000103   0.437392  -0.028385   0.474328  -0.015294
    29  H   -0.000046   0.388349  -0.024468  -0.015294   0.515268
 Mulliken charges:
               1
     1  O   -0.379467
     2  O   -0.409537
     3  N   -0.207152
     4  H    0.295382
     5  C   -0.166613
     6  C    0.270002
     7  C    0.282759
     8  C    0.215160
     9  C   -0.301651
    10  H    0.161219
    11  H    0.169706
    12  C   -0.151327
    13  C    0.148047
    14  C   -0.509961
    15  H    0.148327
    16  H    0.161635
    17  H    0.209440
    18  C   -0.446901
    19  H    0.165667
    20  H    0.167446
    21  H    0.149996
    22  C   -0.484755
    23  H    0.153042
    24  H    0.177860
    25  H    0.157351
    26  C   -0.500590
    27  H    0.171152
    28  H    0.199348
    29  H    0.154416
 Sum of Mulliken charges =  -0.00000
 Mulliken charges with hydrogens summed into heavy atoms:
               1
     1  O   -0.379467
     2  O   -0.409537
     3  N    0.088230
     5  C   -0.166613
     6  C    0.270002
     7  C    0.282759
     8  C    0.215160
     9  C    0.029273
    12  C   -0.151327
    13  C    0.148047
    14  C    0.009442
    18  C    0.036208
    22  C    0.003498
    26  C    0.024325
 Electronic spatial extent (au):  <R**2>=           3228.9307
 Charge=             -0.0000 electrons
 Dipole moment (field-independent basis, Debye):
    X=             -3.9686    Y=              7.6302    Z=             -0.1217  Tot=              8.6015
 Quadrupole moment (field-independent basis, Debye-Ang):
   XX=            -97.9053   YY=            -78.6961   ZZ=            -84.4488
   XY=            -14.1853   XZ=             -2.3891   YZ=             -0.8243
 Traceless Quadrupole moment (field-independent basis, Debye-Ang):
   XX=            -10.8886   YY=              8.3206   ZZ=              2.5679
   XY=            -14.1853   XZ=             -2.3891   YZ=             -0.8243
 Octapole moment (field-independent basis, Debye-Ang**2):
  XXX=           -112.8288  YYY=             66.7182  ZZZ=              1.2098  XYY=             39.0456
  XXY=             27.4294  XXZ=             -5.2592  XZZ=             -0.5702  YZZ=             -0.9138
  YYZ=              1.7701  XYZ=              2.0357
 Hexadecapole moment (field-independent basis, Debye-Ang**3):
 XXXX=          -3134.5052 YYYY=          -1282.5767 ZZZZ=           -130.1056 XXXY=            -56.1114
 XXXZ=            -30.4855 YYYX=            -97.5332 YYYZ=            -11.3928 ZZZX=              2.1631
 ZZZY=              2.0295 XXYY=           -687.9262 XXZZ=           -484.7346 YYZZ=           -234.8679
 XXYZ=             -2.4558 YYXZ=             -3.5118 ZZXY=             -3.8014
 N-N= 8.984591103489D+02 E-N=-3.272969147435D+03  KE= 6.306100943058D+02
 No NMR shielding tensors so no spin-rotation constants.
 Leave Link  601 at Sat Jan 24 23:22:57 2026, MaxMem=  2147483648 cpu:               1.8 elap:               0.1
 (Enter /data/home/wyx/g16/l9999.exe)
 1\1\GINC-CN015\SP\RCAM-B3LYP\TZVP\C11H15N1O2\WYX\24-Jan-2026\0\\#p CAM
 -B3LYP TZVP em=gd3bj scrf=(Solvent=Water,NonEquilibrium=Read) Geom=Che
 ck Guess=Read\\Title Card Required\\0,1\O,0,2.764018,-1.55307,0.676186
 \O,0,-3.368916,-1.662261,-0.774467\N,0,-0.66119,1.524926,-0.061796\H,0
 ,-0.971768,2.47877,-0.146514\C,0,-1.237669,-0.772792,-0.17154\C,0,0.66
 4999,1.315519,0.160273\C,0,-1.607426,0.535828,-0.286741\C,0,-2.147465,
 -1.829629,-0.400695\C,0,0.169337,-1.128956,0.247799\H,0,0.157696,-1.60
 3062,1.235141\H,0,0.577797,-1.882381,-0.427447\C,0,1.128333,0.040277,0
 .27703\C,0,2.508753,-0.362918,0.478441\C,0,-2.949155,1.069564,-0.63228
 \H,0,-3.30405,1.781903,0.118454\H,0,-2.941891,1.584218,-1.596993\H,0,-
 3.710101,0.29328,-0.70349\C,0,-1.823322,-3.283357,-0.218529\H,0,-2.560
 177,-3.80305,0.397662\H,0,-1.79431,-3.80041,-1.18172\H,0,-0.854372,-3.
 428069,0.252306\C,0,3.671141,0.599729,0.436092\H,0,3.625629,1.282374,-
 0.408689\H,0,3.715037,1.196016,1.348245\H,0,4.581655,0.009052,0.372107
 \C,0,1.445704,2.593553,0.240132\H,0,2.13999,2.59953,1.073394\H,0,2.011
 057,2.767906,-0.675135\H,0,0.770667,3.437511,0.372773\\Version=ES64L-G
 16RevA.03\State=1-A\HF=-633.3169042\RMSD=6.934e-09\Dipole=0.4093593,3.
 3591444,0.0229531\Quadrupole=-12.0087502,11.3511969,0.6575532,3.187924
 2,-4.6372095,0.2651498\PG=C01 [X(C11H15N1O2)]\\@


 A MAN THINKING OR WORKING IS ALWAYS ALONE, 
 LET HIM BE WHERE HE WILL.

                                    -- THOREAU
 Job cpu time:       0 days  0 hours 13 minutes 51.9 seconds.
 Elapsed time:       0 days  0 hours  0 minutes 52.8 seconds.
 File lengths (MBytes):  RWF=    339 Int=      0 D2E=      0 Chk=     67 Scr=      1
 Normal termination of Gaussian 16 at Sat Jan 24 23:22:57 2026.
