 Entering Gaussian System, Link 0=g16
 Input=DDL-LR-15.gjf
 Output=DDL-LR-15.log
 Initial command:
 /data/home/wyx/g16/l1.exe "/scr/tmp/wyx/13119/Gau-1514414.inp" -scrdir="/scr/tmp/wyx/13119/"
 Entering Link 1 = /data/home/wyx/g16/l1.exe PID=   1514415.
  
 Copyright (c) 1988,1990,1992,1993,1995,1998,2003,2009,2016,
            Gaussian, Inc.  All Rights Reserved.
  
 This is part of the Gaussian(R) 16 program.  It is based on
 the Gaussian(R) 09 system (copyright 2009, Gaussian, Inc.),
 the Gaussian(R) 03 system (copyright 2003, Gaussian, Inc.),
 the Gaussian(R) 98 system (copyright 1998, Gaussian, Inc.),
 the Gaussian(R) 94 system (copyright 1995, Gaussian, Inc.),
 the Gaussian 92(TM) system (copyright 1992, Gaussian, Inc.),
 the Gaussian 90(TM) system (copyright 1990, Gaussian, Inc.),
 the Gaussian 88(TM) system (copyright 1988, Gaussian, Inc.),
 the Gaussian 86(TM) system (copyright 1986, Carnegie Mellon
 University), and the Gaussian 82(TM) system (copyright 1983,
 Carnegie Mellon University). Gaussian is a federally registered
 trademark of Gaussian, Inc.
  
 This software contains proprietary and confidential information,
 including trade secrets, belonging to Gaussian, Inc.
  
 This software is provided under written license and may be
 used, copied, transmitted, or stored only in accord with that
 written license.
  
 The following legend is applicable only to US Government
 contracts under FAR:
  
                    RESTRICTED RIGHTS LEGEND
  
 Use, reproduction and disclosure by the US Government is
 subject to restrictions as set forth in subparagraphs (a)
 and (c) of the Commercial Computer Software - Restricted
 Rights clause in FAR 52.227-19.
  
 Gaussian, Inc.
 340 Quinnipiac St., Bldg. 40, Wallingford CT 06492
  
  
 ---------------------------------------------------------------
 Warning -- This program may not be used in any manner that
 competes with the business of Gaussian, Inc. or will provide
 assistance to any competitor of Gaussian, Inc.  The licensee
 of this program is prohibited from giving any competitor of
 Gaussian, Inc. access to this program.  By using this program,
 the user acknowledges that Gaussian, Inc. is engaged in the
 business of creating and licensing software in the field of
 computational chemistry and represents and warrants to the
 licensee that it is not a competitor of Gaussian, Inc. and that
 it will not use this program in any manner prohibited above.
 ---------------------------------------------------------------
  

 Cite this work as:
 Gaussian 16, Revision A.03,
 M. J. Frisch, G. W. Trucks, H. B. Schlegel, G. E. Scuseria, 
 M. A. Robb, J. R. Cheeseman, G. Scalmani, V. Barone, 
 G. A. Petersson, H. Nakatsuji, X. Li, M. Caricato, A. V. Marenich, 
 J. Bloino, B. G. Janesko, R. Gomperts, B. Mennucci, H. P. Hratchian, 
 J. V. Ortiz, A. F. Izmaylov, J. L. Sonnenberg, D. Williams-Young, 
 F. Ding, F. Lipparini, F. Egidi, J. Goings, B. Peng, A. Petrone, 
 T. Henderson, D. Ranasinghe, V. G. Zakrzewski, J. Gao, N. Rega, 
 G. Zheng, W. Liang, M. Hada, M. Ehara, K. Toyota, R. Fukuda, 
 J. Hasegawa, M. Ishida, T. Nakajima, Y. Honda, O. Kitao, H. Nakai, 
 T. Vreven, K. Throssell, J. A. Montgomery, Jr., J. E. Peralta, 
 F. Ogliaro, M. J. Bearpark, J. J. Heyd, E. N. Brothers, K. N. Kudin, 
 V. N. Staroverov, T. A. Keith, R. Kobayashi, J. Normand, 
 K. Raghavachari, A. P. Rendell, J. C. Burant, S. S. Iyengar, 
 J. Tomasi, M. Cossi, J. M. Millam, M. Klene, C. Adamo, R. Cammi, 
 J. W. Ochterski, R. L. Martin, K. Morokuma, O. Farkas, 
 J. B. Foresman, and D. J. Fox, Gaussian, Inc., Wallingford CT, 2016.
 
 ******************************************
 Gaussian 16:  ES64L-G16RevA.03 25-Dec-2016
                24-Jan-2026 
 ******************************************
 %nprocshared=16
 Will use up to   16 processors via shared memory.
 %mem=16GB
 %chk=DDL-LR-15.chk
 --------------------------------------------------------------------
 #p CAM-B3LYP TZVP em=gd3bj td(nstates=6,root=1) scrf=(Solvent=Water)
 --------------------------------------------------------------------
 1/38=1,172=1/1;
 2/12=2,17=6,18=5,40=1/2;
 3/5=19,7=101,11=9,25=1,30=1,70=2201,72=1,74=-40,124=41/1,2,3,8;
 4//1;
 5/5=2,38=5,53=1/2;
 8/6=1,10=1,107=1,108=6/1;
 9/8=1,41=6,42=1,70=2/14;
 6/7=2,8=2,9=2,10=2/1;
 99/5=1,9=1/99;
 Leave Link    1 at Sat Jan 24 16:47:36 2026, MaxMem=  2147483648 cpu:               0.4 elap:               0.1
 (Enter /data/home/wyx/g16/l101.exe)
 -------------------
 Title Card Required
 -------------------
 Symbolic Z-matrix:
 Charge =  0 Multiplicity = 1
 O                     2.74846  -1.55849   0.72863 
 O                    -3.22981  -1.64005  -1.1098 
 N                    -0.70824   1.5145    0.12575 
 H                    -1.01513   2.47175   0.06589 
 C                    -1.24666  -0.75819  -0.15233 
 C                     0.643     1.2988    0.2814 
 C                    -1.61703   0.54135  -0.22697 
 C                    -2.15075  -1.83076  -0.5481 
 C                     0.0993   -1.11026   0.43797 
 H                    -0.01144  -1.43056   1.48233 
 H                     0.52764  -1.96762  -0.07651 
 C                     1.09445   0.02588   0.35993 
 C                     2.49339  -0.38856   0.45605 
 C                    -2.93851   1.07991  -0.66523 
 H                    -3.0667    2.10766  -0.32466 
 H                    -3.01739   1.0695   -1.75277 
 H                    -3.76243   0.48073  -0.28913 
 C                    -1.73689  -3.24736  -0.24888 
 H                    -2.57916  -3.92018  -0.39169 
 H                    -0.93324  -3.55855  -0.92041 
 H                    -1.3588   -3.35994   0.7677 
 C                     3.64944   0.54492   0.19401 
 H                     3.46253   1.23793  -0.62192 
 H                     3.87766   1.12634   1.08879 
 H                     4.51931  -0.06484  -0.03847 
 C                     1.42218   2.5775    0.33686 
 H                     2.26157   2.52377   1.0193 
 H                     1.79662   2.84716  -0.65169 
 H                     0.77663   3.38766   0.67397 
 
 ITRead=  0  0  0  0  0  0  0  0  0  0  0  0  0  0  0  0  0  0  0  0
 ITRead=  0  0  0  0  0  0  0  0  0
 MicOpt= -1 -1 -1 -1 -1 -1 -1 -1 -1 -1 -1 -1 -1 -1 -1 -1 -1 -1 -1 -1
 MicOpt= -1 -1 -1 -1 -1 -1 -1 -1 -1
 NAtoms=     29 NQM=       29 NQMF=       0 NMMI=      0 NMMIF=      0
                NMic=       0 NMicF=      0.
                    Isotopes and Nuclear Properties:
 (Nuclear quadrupole moments (NQMom) in fm**2, nuclear magnetic moments (NMagM)
  in nuclear magnetons)

  Atom         1           2           3           4           5           6           7           8           9          10
 IAtWgt=          16          16          14           1          12          12          12          12          12           1
 AtmWgt=  15.9949146  15.9949146  14.0030740   1.0078250  12.0000000  12.0000000  12.0000000  12.0000000  12.0000000   1.0078250
 NucSpn=           0           0           2           1           0           0           0           0           0           1
 AtZEff=  -0.0000000  -0.0000000  -0.0000000  -0.0000000  -0.0000000  -0.0000000  -0.0000000  -0.0000000  -0.0000000  -0.0000000
 NQMom=    0.0000000   0.0000000   2.0440000   0.0000000   0.0000000   0.0000000   0.0000000   0.0000000   0.0000000   0.0000000
 NMagM=    0.0000000   0.0000000   0.4037610   2.7928460   0.0000000   0.0000000   0.0000000   0.0000000   0.0000000   2.7928460
 AtZNuc=   8.0000000   8.0000000   7.0000000   1.0000000   6.0000000   6.0000000   6.0000000   6.0000000   6.0000000   1.0000000

  Atom        11          12          13          14          15          16          17          18          19          20
 IAtWgt=           1          12          12          12           1           1           1          12           1           1
 AtmWgt=   1.0078250  12.0000000  12.0000000  12.0000000   1.0078250   1.0078250   1.0078250  12.0000000   1.0078250   1.0078250
 NucSpn=           1           0           0           0           1           1           1           0           1           1
 AtZEff=  -0.0000000  -0.0000000  -0.0000000  -0.0000000  -0.0000000  -0.0000000  -0.0000000  -0.0000000  -0.0000000  -0.0000000
 NQMom=    0.0000000   0.0000000   0.0000000   0.0000000   0.0000000   0.0000000   0.0000000   0.0000000   0.0000000   0.0000000
 NMagM=    2.7928460   0.0000000   0.0000000   0.0000000   2.7928460   2.7928460   2.7928460   0.0000000   2.7928460   2.7928460
 AtZNuc=   1.0000000   6.0000000   6.0000000   6.0000000   1.0000000   1.0000000   1.0000000   6.0000000   1.0000000   1.0000000

  Atom        21          22          23          24          25          26          27          28          29
 IAtWgt=           1          12           1           1           1          12           1           1           1
 AtmWgt=   1.0078250  12.0000000   1.0078250   1.0078250   1.0078250  12.0000000   1.0078250   1.0078250   1.0078250
 NucSpn=           1           0           1           1           1           0           1           1           1
 AtZEff=  -0.0000000  -0.0000000  -0.0000000  -0.0000000  -0.0000000  -0.0000000  -0.0000000  -0.0000000  -0.0000000
 NQMom=    0.0000000   0.0000000   0.0000000   0.0000000   0.0000000   0.0000000   0.0000000   0.0000000   0.0000000
 NMagM=    2.7928460   0.0000000   2.7928460   2.7928460   2.7928460   0.0000000   2.7928460   2.7928460   2.7928460
 AtZNuc=   1.0000000   6.0000000   1.0000000   1.0000000   1.0000000   6.0000000   1.0000000   1.0000000   1.0000000
 Leave Link  101 at Sat Jan 24 16:47:37 2026, MaxMem=  2147483648 cpu:               0.8 elap:               0.1
 (Enter /data/home/wyx/g16/l202.exe)
                          Input orientation:                          
 ---------------------------------------------------------------------
 Center     Atomic      Atomic             Coordinates (Angstroms)
 Number     Number       Type             X           Y           Z
 ---------------------------------------------------------------------
      1          8           0        2.748457   -1.558493    0.728631
      2          8           0       -3.229811   -1.640047   -1.109803
      3          7           0       -0.708239    1.514503    0.125750
      4          1           0       -1.015135    2.471748    0.065893
      5          6           0       -1.246662   -0.758185   -0.152331
      6          6           0        0.642999    1.298798    0.281400
      7          6           0       -1.617029    0.541347   -0.226974
      8          6           0       -2.150747   -1.830756   -0.548098
      9          6           0        0.099297   -1.110256    0.437972
     10          1           0       -0.011436   -1.430557    1.482325
     11          1           0        0.527635   -1.967623   -0.076512
     12          6           0        1.094450    0.025882    0.359932
     13          6           0        2.493394   -0.388562    0.456048
     14          6           0       -2.938510    1.079914   -0.665233
     15          1           0       -3.066702    2.107657   -0.324655
     16          1           0       -3.017391    1.069499   -1.752774
     17          1           0       -3.762425    0.480730   -0.289131
     18          6           0       -1.736888   -3.247363   -0.248883
     19          1           0       -2.579158   -3.920175   -0.391694
     20          1           0       -0.933239   -3.558549   -0.920409
     21          1           0       -1.358799   -3.359940    0.767697
     22          6           0        3.649444    0.544916    0.194007
     23          1           0        3.462531    1.237932   -0.621924
     24          1           0        3.877655    1.126336    1.088789
     25          1           0        4.519314   -0.064837   -0.038473
     26          6           0        1.422179    2.577496    0.336861
     27          1           0        2.261569    2.523773    1.019304
     28          1           0        1.796621    2.847159   -0.651685
     29          1           0        0.776628    3.387655    0.673968
 ---------------------------------------------------------------------
                    Distance matrix (angstroms):
                    1          2          3          4          5
     1  O    0.000000
     2  O    6.255092   0.000000
     3  N    4.664281   4.223281   0.000000
     4  H    5.553980   4.816006   1.007018   0.000000
     5  C    4.168640   2.372196   2.352092   3.245565   0.000000
     6  C    3.577301   5.056769   1.377171   2.042465   2.826680
     7  C    4.937608   2.852881   1.377442   2.043158   1.353339
     8  C    5.070144   1.231366   3.704816   4.492008   1.457536
     9  C    2.702489   3.709346   2.763866   3.769768   1.511297
    10  H    2.863814   4.137747   3.316505   4.271027   2.156378
    11  H    2.397435   3.910677   3.700472   4.701961   2.148632
    12  C    2.319897   4.861551   2.349579   3.243311   2.521503
    13  C    1.228046   6.064089   3.739145   4.543498   3.807199
    14  C    6.422277   2.771405   2.405957   2.484174   2.550299
    15  H    6.954577   3.832538   2.473266   2.119910   3.399308
    16  H    6.805051   2.792879   3.009828   3.046782   3.006215
    17  H    6.898250   2.335567   3.250979   3.411422   2.807613
    18  C    4.891435   2.356580   4.886086   5.773062   2.538829
    19  H    5.934320   2.477501   5.770945   6.596380   3.439625
    20  H    4.502715   2.998460   5.184682   6.110972   2.920653
    21  H    4.485119   3.159703   4.959387   5.883810   2.761912
    22  C    2.349879   7.334721   4.464769   5.048504   5.078373
    23  H    3.186517   7.301249   4.246273   4.695198   5.136292
    24  H    2.934810   7.937427   4.701972   5.176470   5.599145
    25  H    2.440367   7.979848   5.463387   6.088947   5.808629
    26  C    4.361067   6.443719   2.390231   2.454609   4.299859
    27  H    4.121462   7.212888   3.261414   3.412988   4.944862
    28  H    4.713919   6.753511   2.941887   2.926059   4.744411
    29  H    5.324986   6.671670   2.452360   2.102155   4.686626
                    6          7          8          9         10
     6  C    0.000000
     7  C    2.437192   0.000000
     8  C    4.276353   2.452519   0.000000
     9  C    2.474605   2.472998   2.560108   0.000000
    10  H    3.052849   3.063990   2.976479   1.097965   0.000000
    11  H    3.287996   3.304112   2.723023   1.087771   1.734650
    12  C    1.352882   2.821751   3.847457   1.512359   2.145685
    13  C    2.510308   4.269289   4.965509   2.500574   2.900547
    14  C    3.710961   1.492795   3.017663   3.904123   4.413868
    15  H    3.844924   2.136450   4.049691   4.578222   5.011864
    16  H    4.193912   2.137294   3.257882   4.389128   5.074634
    17  H    4.516913   2.147152   2.829759   4.239435   4.567384
    18  C    5.158744   3.790669   1.505850   2.900099   3.045497
    19  H    6.170335   4.567056   2.138614   3.969649   4.037740
    20  H    5.246207   4.213973   2.146208   2.984203   3.339341
    21  H    5.093871   4.034364   2.167234   2.701081   2.459390
    22  C    3.100756   5.283273   6.311636   3.924622   4.354802
    23  H    2.961327   5.142290   6.397749   4.236592   4.859747
    24  H    3.338356   5.680229   6.911253   4.438682   4.670932
    25  H    4.121606   6.169092   6.918663   4.566886   4.970484
    26  C    1.498421   3.701432   5.742964   3.919152   4.408155
    27  H    2.159823   4.530645   6.394310   4.268435   4.584503
    28  H    2.144508   4.141275   6.121710   4.441778   5.110961
    29  H    2.129622   3.826586   6.106945   4.554742   4.948702
                   11         12         13         14         15
    11  H    0.000000
    12  C    2.117977   0.000000
    13  C    2.577065   1.462206   0.000000
    14  C    4.652766   4.292635   5.737532   0.000000
    15  H    5.439553   4.702939   6.144532   1.090267   0.000000
    16  H    4.959957   4.739188   6.113394   1.090448   1.766275
    17  H    4.944113   4.921118   6.359735   1.085960   1.769798
    18  C    2.606820   4.370499   5.154120   4.510274   5.518187
    19  H    3.682928   5.443501   6.238729   5.020443   6.047888
    20  H    2.318914   4.312649   4.866751   5.059799   6.083788
    21  H    2.491961   4.201011   4.874998   4.925554   5.831362
    22  C    4.016432   2.612455   1.508807   6.665257   6.915041
    23  H    4.380259   2.835651   2.178700   6.403138   6.593609
    24  H    4.706713   3.080335   2.147430   7.038384   7.154363
    25  H    4.422165   3.449152   2.110379   7.571157   7.896155
    26  C    4.650720   2.572678   3.155821   4.718321   4.561623
    27  H    4.937609   2.834854   2.975348   5.653602   5.510885
    28  H    5.012312   3.078314   3.490337   5.054187   4.930083
    29  H    5.413337   3.391334   4.153864   4.573989   4.172149
                   16         17         18         19         20
    16  H    0.000000
    17  H    1.744699   0.000000
    18  C    4.747281   4.243006   0.000000
    19  H    5.190514   4.558355   1.087423   0.000000
    20  H    5.143476   4.971778   1.092536   1.766172   0.000000
    21  H    5.359443   4.652424   1.090440   1.774071   1.752213
    22  C    6.965044   7.427876   6.602280   7.686063   6.251506
    23  H    6.580014   7.272145   6.876844   7.947395   6.512919
    24  H    7.457840   7.790141   7.241664   8.327637   7.009260
    25  H    7.812008   8.303474   7.022308   8.085586   6.535608
    26  C    5.133265   5.627469   6.652201   7.665587   6.691769
    27  H    6.137324   6.494192   7.134561   8.182177   7.138902
    28  H    5.248541   6.052638   7.056283   8.062992   6.968317
    29  H    5.065324   5.475470   7.154920   8.111801   7.329081
                   21         22         23         24         25
    21  H    0.000000
    22  C    6.376482   0.000000
    23  H    6.805637   1.086716   0.000000
    24  H    6.902914   1.091221   1.763894   0.000000
    25  H    6.786739   1.087437   1.776067   1.761062   0.000000
    26  C    6.570586   3.018691   2.622353   2.949682   4.088404
    27  H    6.912919   2.554053   2.406102   2.137614   3.594052
    28  H    7.106293   3.073837   2.316410   3.212660   4.033461
    29  H    7.078056   4.069963   3.676237   3.860312   5.141495
                   26         27         28         29
    26  C    0.000000
    27  H    1.083139   0.000000
    28  H    1.090939   1.764358   0.000000
    29  H    1.089374   1.752312   1.757805   0.000000
 Stoichiometry    C11H15NO2
 Framework group  C1[X(C11H15NO2)]
 Deg. of freedom    81
 Full point group                 C1      NOp   1
 Largest Abelian subgroup         C1      NOp   1
 Largest concise Abelian subgroup C1      NOp   1
                         Standard orientation:                         
 ---------------------------------------------------------------------
 Center     Atomic      Atomic             Coordinates (Angstroms)
 Number     Number       Type             X           Y           Z
 ---------------------------------------------------------------------
      1          8           0       -2.283915   -2.283570   -0.165908
      2          8           0        3.594252   -0.241630    0.469557
      3          7           0       -0.031240    1.799694   -0.254947
      4          1           0       -0.063011    2.806207   -0.257786
      5          6           0        1.289739   -0.138860   -0.083591
      6          6           0       -1.232582    1.135680   -0.143310
      7          6           0        1.202724    1.211679   -0.084898
      8          6           0        2.561079   -0.818996    0.129756
      9          6           0        0.060089   -0.958902   -0.399038
     10          1           0        0.080000   -1.294189   -1.444368
     11          1           0        0.051026   -1.872933    0.190632
     12          6           0       -1.230121   -0.217135   -0.130024
     13          6           0       -2.396924   -1.079884    0.049650
     14          6           0        2.318487    2.188580    0.085903
     15          1           0        2.024582    3.174554   -0.274871
     16          1           0        2.593919    2.279062    1.137106
     17          1           0        3.213443    1.874337   -0.442882
     18          6           0        2.606706   -2.309399   -0.080492
     19          1           0        3.638665   -2.651459   -0.103822
     20          1           0        2.094364   -2.824327    0.735590
     21          1           0        2.110165   -2.610481   -1.003452
     22          6           0       -3.732867   -0.569818    0.530886
     23          1           0       -3.646931    0.199654    1.293434
     24          1           0       -4.305063   -0.160069   -0.303057
     25          1           0       -4.285064   -1.417436    0.929813
     26          6           0       -2.396562    2.074437   -0.047648
     27          1           0       -3.277411    1.697591   -0.552904
     28          1           0       -2.652679    2.270373    0.994542
     29          1           0       -2.138618    3.028576   -0.505706
 ---------------------------------------------------------------------
 Rotational constants (GHZ):           1.0812039           0.4899769           0.3467656
 Leave Link  202 at Sat Jan 24 16:47:37 2026, MaxMem=  2147483648 cpu:               0.0 elap:               0.0
 (Enter /data/home/wyx/g16/l301.exe)
 Standard basis: TZVP (5D, 7F)
 Ernie: Thresh=  0.10000D-02 Tol=  0.10000D-05 Strict=F.
 There are   370 symmetry adapted cartesian basis functions of A   symmetry.
 There are   356 symmetry adapted basis functions of A   symmetry.
   356 basis functions,   610 primitive gaussians,   370 cartesian basis functions
    52 alpha electrons       52 beta electrons
       nuclear repulsion energy       900.7140420389 Hartrees.
 IExCor=20419 DFT=T Ex+Corr=CAM-B3LYP ExCW=0 ScaHFX=  1.000000
 ScaDFX=  1.000000  1.000000  1.000000  0.810000 ScalE2=  1.000000  1.000000
 IRadAn=      5 IRanWt=     -1 IRanGd=            0 ICorTp=0 IEmpDi=141
 HFx  wShort=  0.000000 wLong=  0.330000 cFull=  0.190000 cShort=  0.000000 cLong=  0.460000
 DFx  wShort=  0.000000 wLong=  0.330000 cFull=  0.190000 cShort=  0.000000 cLong=  0.460000
 NAtoms=   29 NActive=   29 NUniq=   29 SFac= 1.00D+00 NAtFMM=   60 NAOKFM=F Big=F
 Integral buffers will be    131072 words long.
 Raffenetti 1 integral format.
 Two-electron integral symmetry is turned on.
 R6Disp:  Grimme-D3(BJ) Dispersion energy=       -0.0262080646 Hartrees.
 Nuclear repulsion after empirical dispersion term =      900.6878339743 Hartrees.
 ------------------------------------------------------------------------------
 Polarizable Continuum Model (PCM)
 =================================
 Model                : PCM.
 Atomic radii         : UFF (Universal Force Field).
 Polarization charges : Total charges.
 Charge compensation  : None.
 Solution method      : On-the-fly selection.
 Cavity type          : Scaled VdW (van der Waals Surface) (Alpha=1.100).
 Cavity algorithm     : GePol (No added spheres)
                        Default sphere list used, NSphG=   29.
                        Lebedev-Laikov grids with approx.  5.0 points / Ang**2.
                        Smoothing algorithm: York/Karplus (Gamma=1.0000).
                        Polarization charges: spherical gaussians, with
                                              point-specific exponents (IZeta= 3).
                        Self-potential: point-specific (ISelfS= 7).
                        Self-field    : sphere-specific E.n sum rule (ISelfD= 2).
 Solvent              : Water, Eps=  78.355300 Eps(inf)=   1.777849
 ------------------------------------------------------------------------------
 GePol: Number of generator spheres                  =      29
 GePol: Total number of spheres                      =      29
 GePol: Number of exposed spheres                    =      29 (100.00%)
 GePol: Number of points                             =    2095
 GePol: Average weight of points                     =       0.13
 GePol: Minimum weight of points                     =   0.20D-09
 GePol: Maximum weight of points                     =    0.20577
 GePol: Number of points with low weight             =     144
 GePol: Fraction of low-weight points (<1% of avg)   =       6.87%
 GePol: Cavity surface area                          =    268.468 Ang**2
 GePol: Cavity volume                                =    286.451 Ang**3
 Leave Link  301 at Sat Jan 24 16:47:37 2026, MaxMem=  2147483648 cpu:               0.6 elap:               0.0
 (Enter /data/home/wyx/g16/l302.exe)
 NPDir=0 NMtPBC=     1 NCelOv=     1 NCel=       1 NClECP=     1 NCelD=      1
         NCelK=      1 NCelE2=     1 NClLst=     1 CellRange=     0.0.
 One-electron integrals computed using PRISM.
 One-electron integral symmetry used in STVInt
 NBasis=   356 RedAO= T EigKep=  4.65D-05  NBF=   356
 NBsUse=   356 1.00D-06 EigRej= -1.00D+00 NBFU=   356
 Precomputing XC quadrature grid using
 IXCGrd= 4 IRadAn=           5 IRanWt=          -1 IRanGd=           0 AccXCQ= 0.00D+00.
 Generated NRdTot=       0 NPtTot=           0 NUsed=           0 NTot=          32
 NSgBfM=   366   366   366   366   366 MxSgAt=    29 MxSgA2=    29.
 Leave Link  302 at Sat Jan 24 16:47:37 2026, MaxMem=  2147483648 cpu:               3.1 elap:               0.2
 (Enter /data/home/wyx/g16/l303.exe)
 DipDrv:  MaxL=1.
 Leave Link  303 at Sat Jan 24 16:47:38 2026, MaxMem=  2147483648 cpu:               0.6 elap:               0.0
 (Enter /data/home/wyx/g16/l308.exe)
 Leave Link  308 at Sat Jan 24 16:47:38 2026, MaxMem=  2147483648 cpu:               0.7 elap:               0.1
 (Enter /data/home/wyx/g16/l401.exe)
 ExpMin= 9.52D-02 ExpMax= 2.70D+04 ExpMxC= 9.22D+02 IAcc=3 IRadAn=         5 AccDes= 0.00D+00
 Harris functional with IExCor=20419 and IRadAn=       5 diagonalized for initial guess.
 HarFok:  IExCor=20419 AccDes= 0.00D+00 IRadAn=         5 IDoV= 1 UseB2=F ITyADJ=14
 ICtDFT=  3500011 ScaDFX=  1.000000  1.000000  1.000000  1.000000
 FoFCou: FMM=F IPFlag=           0 FMFlag=      100000 FMFlg1=           0
         NFxFlg=           0 DoJE=T BraDBF=F KetDBF=T FulRan=T
         wScrn=  0.000000 ICntrl=       500 IOpCl=  0 I1Cent=   200000004 NGrid=           0
         NMat0=    1 NMatS0=      1 NMatT0=    0 NMatD0=    1 NMtDS0=    0 NMtDT0=    0
 Petite list used in FoFCou.
 Harris En= -608.713600981826    
 JPrj=0 DoOrth=F DoCkMO=F.
 Leave Link  401 at Sat Jan 24 16:47:39 2026, MaxMem=  2147483648 cpu:              11.8 elap:               0.8
 (Enter /data/home/wyx/g16/l502.exe)
 Integral symmetry usage will be decided dynamically.
 Closed shell SCF:
 Using DIIS extrapolation, IDIIS=  1040.
 NGot=  2147483648 LenX=  2147200095 LenY=  2147062754
 Requested convergence on RMS density matrix=1.00D-08 within 128 cycles.
 Requested convergence on MAX density matrix=1.00D-06.
 Requested convergence on             energy=1.00D-06.
 No special actions if energy rises.
 Fock matrices will be formed incrementally for  20 cycles.

 Cycle   1  Pass 1  IDiag  1:
 FoFJK:  IHMeth= 1 ICntrl=       0 DoSepK=T KAlg= 0 I1Cent=           0 FoldK=F
 IRaf=         1 NMat=       1 IRICut=       1 DoRegI=T DoRafI=F ISym2E= 0 IDoP0=0 IntGTp=1.
 FoFCou: FMM=F IPFlag=           0 FMFlag=      100000 FMFlg1=           0
         NFxFlg=           0 DoJE=T BraDBF=F KetDBF=F FulRan=T
         wScrn=  0.000000 ICntrl=       500 IOpCl=  0 I1Cent=           0 NGrid=           0
         NMat0=    1 NMatS0=      1 NMatT0=    0 NMatD0=    1 NMtDS0=    0 NMtDT0=    0
 Symmetry not used in FoFCou.
 Inv3:  Mode=1 IEnd=    13167075.
 Iteration    1 A*A^-1 deviation from unit magnitude is 3.55D-15 for   1656.
 Iteration    1 A*A^-1 deviation from orthogonality  is 1.90D-15 for   1109    964.
 Iteration    1 A^-1*A deviation from unit magnitude is 3.55D-15 for   1656.
 Iteration    1 A^-1*A deviation from orthogonality  is 2.33D-15 for   1806    225.
 E= -633.136840747384    
 DIIS: error= 4.13D-02 at cycle   1 NSaved=   1.
 NSaved= 1 IEnMin= 1 EnMin= -633.136840747384     IErMin= 1 ErrMin= 4.13D-02
 ErrMax= 4.13D-02  0.00D+00 EMaxC= 1.00D-01 BMatC= 1.09D+00 BMatP= 1.09D+00
 IDIUse=3 WtCom= 5.87D-01 WtEn= 4.13D-01
 Coeff-Com:  0.100D+01
 Coeff-En:   0.100D+01
 Coeff:      0.100D+01
 Gap=     0.233 Goal=   None    Shift=    0.000
 GapD=    0.233 DampG=1.000 DampE=0.500 DampFc=0.5000 IDamp=-1.
 Damping current iteration by 5.00D-01
 RMSDP=4.05D-03 MaxDP=1.89D-01              OVMax= 1.37D-01

 Cycle   2  Pass 1  IDiag  1:
 RMSU=  1.78D-03    CP:  9.28D-01
 E= -633.231674548054     Delta-E=       -0.094833800670 Rises=F Damp=T
 DIIS: error= 1.89D-02 at cycle   2 NSaved=   2.
 NSaved= 2 IEnMin= 2 EnMin= -633.231674548054     IErMin= 2 ErrMin= 1.89D-02
 ErrMax= 1.89D-02  0.00D+00 EMaxC= 1.00D-01 BMatC= 2.23D-01 BMatP= 1.09D+00
 IDIUse=3 WtCom= 8.11D-01 WtEn= 1.89D-01
 Coeff-Com: -0.597D+00 0.160D+01
 Coeff-En:   0.000D+00 0.100D+01
 Coeff:     -0.485D+00 0.148D+01
 Gap=     0.247 Goal=   None    Shift=    0.000
 RMSDP=1.41D-03 MaxDP=4.24D-02 DE=-9.48D-02 OVMax= 1.31D-01

 Cycle   3  Pass 1  IDiag  1:
 RMSU=  1.32D-03    CP:  9.07D-01  1.23D+00
 E= -633.280651351156     Delta-E=       -0.048976803101 Rises=F Damp=F
 DIIS: error= 1.09D-02 at cycle   3 NSaved=   3.
 NSaved= 3 IEnMin= 3 EnMin= -633.280651351156     IErMin= 3 ErrMin= 1.09D-02
 ErrMax= 1.09D-02  0.00D+00 EMaxC= 1.00D-01 BMatC= 6.26D-02 BMatP= 2.23D-01
 IDIUse=3 WtCom= 8.91D-01 WtEn= 1.09D-01
 Coeff-Com: -0.365D+00 0.798D+00 0.566D+00
 Coeff-En:   0.000D+00 0.000D+00 0.100D+01
 Coeff:     -0.325D+00 0.711D+00 0.614D+00
 Gap=     0.243 Goal=   None    Shift=    0.000
 RMSDP=1.34D-03 MaxDP=7.39D-02 DE=-4.90D-02 OVMax= 7.28D-02

 Cycle   4  Pass 1  IDiag  1:
 RMSU=  4.99D-04    CP:  8.58D-01  1.72D+00  5.49D-01
 E= -633.327581528806     Delta-E=       -0.046930177650 Rises=F Damp=F
 DIIS: error= 3.72D-03 at cycle   4 NSaved=   4.
 NSaved= 4 IEnMin= 4 EnMin= -633.327581528806     IErMin= 4 ErrMin= 3.72D-03
 ErrMax= 3.72D-03  0.00D+00 EMaxC= 1.00D-01 BMatC= 6.18D-03 BMatP= 6.26D-02
 IDIUse=3 WtCom= 9.63D-01 WtEn= 3.72D-02
 Coeff-Com: -0.170D+00 0.367D+00 0.355D+00 0.447D+00
 Coeff-En:   0.000D+00 0.000D+00 0.000D+00 0.100D+01
 Coeff:     -0.163D+00 0.354D+00 0.342D+00 0.468D+00
 Gap=     0.239 Goal=   None    Shift=    0.000
 RMSDP=3.12D-04 MaxDP=1.97D-02 DE=-4.69D-02 OVMax= 1.38D-02

 Cycle   5  Pass 1  IDiag  1:
 RMSU=  9.38D-05    CP:  8.69D-01  1.66D+00  6.73D-01  6.65D-01
 E= -633.332232656179     Delta-E=       -0.004651127373 Rises=F Damp=F
 DIIS: error= 4.05D-04 at cycle   5 NSaved=   5.
 NSaved= 5 IEnMin= 5 EnMin= -633.332232656179     IErMin= 5 ErrMin= 4.05D-04
 ErrMax= 4.05D-04  0.00D+00 EMaxC= 1.00D-01 BMatC= 6.42D-05 BMatP= 6.18D-03
 IDIUse=3 WtCom= 9.96D-01 WtEn= 4.05D-03
 Coeff-Com: -0.294D-01 0.628D-01 0.718D-01 0.147D+00 0.748D+00
 Coeff-En:   0.000D+00 0.000D+00 0.000D+00 0.000D+00 0.100D+01
 Coeff:     -0.293D-01 0.625D-01 0.715D-01 0.146D+00 0.749D+00
 Gap=     0.239 Goal=   None    Shift=    0.000
 RMSDP=1.07D-04 MaxDP=5.50D-03 DE=-4.65D-03 OVMax= 1.82D-03

 Cycle   6  Pass 1  IDiag  1:
 RMSU=  4.82D-05    CP:  8.64D-01  1.68D+00  6.79D-01  7.83D-01  1.12D+00
 E= -633.332271930256     Delta-E=       -0.000039274077 Rises=F Damp=F
 DIIS: error= 3.55D-04 at cycle   6 NSaved=   6.
 NSaved= 6 IEnMin= 6 EnMin= -633.332271930256     IErMin= 6 ErrMin= 3.55D-04
 ErrMax= 3.55D-04  0.00D+00 EMaxC= 1.00D-01 BMatC= 2.28D-05 BMatP= 6.42D-05
 IDIUse=3 WtCom= 9.96D-01 WtEn= 3.55D-03
 Coeff-Com:  0.174D-01-0.380D-01-0.296D-01-0.941D-02 0.434D+00 0.626D+00
 Coeff-En:   0.000D+00 0.000D+00 0.000D+00 0.000D+00 0.135D+00 0.865D+00
 Coeff:      0.174D-01-0.379D-01-0.295D-01-0.938D-02 0.433D+00 0.626D+00
 Gap=     0.239 Goal=   None    Shift=    0.000
 RMSDP=2.38D-05 MaxDP=9.37D-04 DE=-3.93D-05 OVMax= 2.76D-03

 Cycle   7  Pass 1  IDiag  1:
 RMSU=  1.72D-05    CP:  8.64D-01  1.69D+00  6.82D-01  7.83D-01  1.23D+00
                    CP:  7.97D-01
 E= -633.332293325802     Delta-E=       -0.000021395545 Rises=F Damp=F
 DIIS: error= 3.64D-05 at cycle   7 NSaved=   7.
 NSaved= 7 IEnMin= 7 EnMin= -633.332293325802     IErMin= 7 ErrMin= 3.64D-05
 ErrMax= 3.64D-05  0.00D+00 EMaxC= 1.00D-01 BMatC= 7.50D-07 BMatP= 2.28D-05
 IDIUse=1 WtCom= 1.00D+00 WtEn= 0.00D+00
 Coeff-Com:  0.376D-02-0.809D-02-0.714D-02-0.106D-01-0.849D-02 0.134D+00
 Coeff-Com:  0.897D+00
 Coeff:      0.376D-02-0.809D-02-0.714D-02-0.106D-01-0.849D-02 0.134D+00
 Coeff:      0.897D+00
 Gap=     0.239 Goal=   None    Shift=    0.000
 RMSDP=1.49D-05 MaxDP=8.03D-04 DE=-2.14D-05 OVMax= 6.29D-04

 Cycle   8  Pass 1  IDiag  1:
 RMSU=  4.58D-06    CP:  8.64D-01  1.69D+00  6.84D-01  7.99D-01  1.29D+00
                    CP:  9.29D-01  1.07D+00
 E= -633.332294526587     Delta-E=       -0.000001200785 Rises=F Damp=F
 DIIS: error= 2.13D-05 at cycle   8 NSaved=   8.
 NSaved= 8 IEnMin= 8 EnMin= -633.332294526587     IErMin= 8 ErrMin= 2.13D-05
 ErrMax= 2.13D-05  0.00D+00 EMaxC= 1.00D-01 BMatC= 9.89D-08 BMatP= 7.50D-07
 IDIUse=1 WtCom= 1.00D+00 WtEn= 0.00D+00
 Coeff-Com: -0.530D-03 0.121D-02 0.631D-03-0.372D-02-0.623D-01-0.154D-01
 Coeff-Com:  0.306D+00 0.775D+00
 Coeff:     -0.530D-03 0.121D-02 0.631D-03-0.372D-02-0.623D-01-0.154D-01
 Coeff:      0.306D+00 0.775D+00
 Gap=     0.239 Goal=   None    Shift=    0.000
 RMSDP=4.05D-06 MaxDP=2.37D-04 DE=-1.20D-06 OVMax= 3.68D-04

 Cycle   9  Pass 1  IDiag  1:
 RMSU=  1.28D-06    CP:  8.64D-01  1.69D+00  6.84D-01  8.03D-01  1.30D+00
                    CP:  9.60D-01  1.17D+00  1.22D+00
 E= -633.332294700675     Delta-E=       -0.000000174088 Rises=F Damp=F
 DIIS: error= 4.61D-06 at cycle   9 NSaved=   9.
 NSaved= 9 IEnMin= 9 EnMin= -633.332294700675     IErMin= 9 ErrMin= 4.61D-06
 ErrMax= 4.61D-06  0.00D+00 EMaxC= 1.00D-01 BMatC= 1.50D-08 BMatP= 9.89D-08
 IDIUse=1 WtCom= 1.00D+00 WtEn= 0.00D+00
 Coeff-Com: -0.844D-03 0.184D-02 0.155D-02 0.486D-03-0.208D-01-0.195D-01
 Coeff-Com: -0.422D-01 0.269D+00 0.810D+00
 Coeff:     -0.844D-03 0.184D-02 0.155D-02 0.486D-03-0.208D-01-0.195D-01
 Coeff:     -0.422D-01 0.269D+00 0.810D+00
 Gap=     0.239 Goal=   None    Shift=    0.000
 RMSDP=1.72D-06 MaxDP=9.29D-05 DE=-1.74D-07 OVMax= 1.09D-04

 Cycle  10  Pass 1  IDiag  1:
 RMSU=  6.16D-07    CP:  8.64D-01  1.69D+00  6.84D-01  8.05D-01  1.30D+00
                    CP:  9.78D-01  1.20D+00  1.35D+00  1.22D+00
 E= -633.332294723932     Delta-E=       -0.000000023257 Rises=F Damp=F
 DIIS: error= 1.19D-06 at cycle  10 NSaved=  10.
 NSaved=10 IEnMin=10 EnMin= -633.332294723932     IErMin=10 ErrMin= 1.19D-06
 ErrMax= 1.19D-06  0.00D+00 EMaxC= 1.00D-01 BMatC= 7.42D-10 BMatP= 1.50D-08
 IDIUse=1 WtCom= 1.00D+00 WtEn= 0.00D+00
 Coeff-Com: -0.121D-03 0.258D-03 0.256D-03 0.279D-03-0.226D-03-0.151D-02
 Coeff-Com: -0.358D-01 0.453D-02 0.167D+00 0.865D+00
 Coeff:     -0.121D-03 0.258D-03 0.256D-03 0.279D-03-0.226D-03-0.151D-02
 Coeff:     -0.358D-01 0.453D-02 0.167D+00 0.865D+00
 Gap=     0.239 Goal=   None    Shift=    0.000
 RMSDP=3.85D-07 MaxDP=1.52D-05 DE=-2.33D-08 OVMax= 3.03D-05

 Cycle  11  Pass 1  IDiag  1:
 RMSU=  1.75D-07    CP:  8.64D-01  1.69D+00  6.84D-01  8.05D-01  1.30D+00
                    CP:  9.81D-01  1.20D+00  1.39D+00  1.29D+00  1.05D+00
 E= -633.332294725211     Delta-E=       -0.000000001279 Rises=F Damp=F
 DIIS: error= 6.45D-07 at cycle  11 NSaved=  11.
 NSaved=11 IEnMin=11 EnMin= -633.332294725211     IErMin=11 ErrMin= 6.45D-07
 ErrMax= 6.45D-07  0.00D+00 EMaxC= 1.00D-01 BMatC= 1.60D-10 BMatP= 7.42D-10
 IDIUse=1 WtCom= 1.00D+00 WtEn= 0.00D+00
 Coeff-Com:  0.321D-04-0.721D-04-0.404D-04 0.806D-04 0.214D-02 0.167D-02
 Coeff-Com: -0.112D-01-0.259D-01-0.269D-01 0.376D+00 0.685D+00
 Coeff:      0.321D-04-0.721D-04-0.404D-04 0.806D-04 0.214D-02 0.167D-02
 Coeff:     -0.112D-01-0.259D-01-0.269D-01 0.376D+00 0.685D+00
 Gap=     0.239 Goal=   None    Shift=    0.000
 RMSDP=1.11D-07 MaxDP=3.81D-06 DE=-1.28D-09 OVMax= 6.08D-06

 Cycle  12  Pass 1  IDiag  1:
 RMSU=  5.40D-08    CP:  8.64D-01  1.69D+00  6.84D-01  8.05D-01  1.30D+00
                    CP:  9.81D-01  1.20D+00  1.41D+00  1.32D+00  1.12D+00
                    CP:  1.05D+00
 E= -633.332294725408     Delta-E=       -0.000000000197 Rises=F Damp=F
 DIIS: error= 1.05D-07 at cycle  12 NSaved=  12.
 NSaved=12 IEnMin=12 EnMin= -633.332294725408     IErMin=12 ErrMin= 1.05D-07
 ErrMax= 1.05D-07  0.00D+00 EMaxC= 1.00D-01 BMatC= 4.59D-12 BMatP= 1.60D-10
 IDIUse=1 WtCom= 1.00D+00 WtEn= 0.00D+00
 Coeff-Com:  0.131D-04-0.283D-04-0.243D-04-0.106D-04 0.299D-03 0.318D-03
 Coeff-Com:  0.967D-03-0.282D-02-0.205D-01-0.967D-02 0.830D-01 0.948D+00
 Coeff:      0.131D-04-0.283D-04-0.243D-04-0.106D-04 0.299D-03 0.318D-03
 Coeff:      0.967D-03-0.282D-02-0.205D-01-0.967D-02 0.830D-01 0.948D+00
 Gap=     0.239 Goal=   None    Shift=    0.000
 RMSDP=3.31D-08 MaxDP=2.27D-06 DE=-1.97D-10 OVMax= 2.32D-06

 Cycle  13  Pass 1  IDiag  1:
 RMSU=  1.80D-08    CP:  8.64D-01  1.69D+00  6.84D-01  8.05D-01  1.30D+00
                    CP:  9.81D-01  1.20D+00  1.41D+00  1.33D+00  1.14D+00
                    CP:  1.16D+00  1.09D+00
 E= -633.332294725421     Delta-E=       -0.000000000013 Rises=F Damp=F
 DIIS: error= 5.27D-08 at cycle  13 NSaved=  13.
 NSaved=13 IEnMin=13 EnMin= -633.332294725421     IErMin=13 ErrMin= 5.27D-08
 ErrMax= 5.27D-08  0.00D+00 EMaxC= 1.00D-01 BMatC= 1.35D-12 BMatP= 4.59D-12
 IDIUse=1 WtCom= 1.00D+00 WtEn= 0.00D+00
 Coeff-Com:  0.284D-05-0.587D-05-0.671D-05-0.113D-04-0.549D-04 0.119D-04
 Coeff-Com:  0.138D-02 0.143D-02-0.647D-02-0.339D-01-0.256D-01 0.387D+00
 Coeff-Com:  0.677D+00
 Coeff:      0.284D-05-0.587D-05-0.671D-05-0.113D-04-0.549D-04 0.119D-04
 Coeff:      0.138D-02 0.143D-02-0.647D-02-0.339D-01-0.256D-01 0.387D+00
 Coeff:      0.677D+00
 Gap=     0.239 Goal=   None    Shift=    0.000
 RMSDP=1.01D-08 MaxDP=7.35D-07 DE=-1.34D-11 OVMax= 8.94D-07

 Cycle  14  Pass 1  IDiag  1:
 RMSU=  7.25D-09    CP:  8.64D-01  1.69D+00  6.84D-01  8.05D-01  1.30D+00
                    CP:  9.81D-01  1.20D+00  1.41D+00  1.32D+00  1.14D+00
                    CP:  1.18D+00  1.17D+00  1.03D+00
 E= -633.332294725419     Delta-E=        0.000000000002 Rises=F Damp=F
 DIIS: error= 2.81D-08 at cycle  14 NSaved=  14.
 NSaved=14 IEnMin=13 EnMin= -633.332294725421     IErMin=14 ErrMin= 2.81D-08
 ErrMax= 2.81D-08  0.00D+00 EMaxC= 1.00D-01 BMatC= 2.89D-13 BMatP= 1.35D-12
 IDIUse=1 WtCom= 1.00D+00 WtEn= 0.00D+00
 Coeff-Com: -0.141D-05 0.315D-05 0.209D-05-0.278D-05-0.850D-04-0.622D-04
 Coeff-Com:  0.348D-03 0.122D-02 0.133D-02-0.128D-01-0.303D-01-0.481D-01
 Coeff-Com:  0.288D+00 0.800D+00
 Coeff:     -0.141D-05 0.315D-05 0.209D-05-0.278D-05-0.850D-04-0.622D-04
 Coeff:      0.348D-03 0.122D-02 0.133D-02-0.128D-01-0.303D-01-0.481D-01
 Coeff:      0.288D+00 0.800D+00
 Gap=     0.239 Goal=   None    Shift=    0.000
 RMSDP=5.94D-09 MaxDP=4.39D-07 DE= 2.05D-12 OVMax= 7.11D-07

 Error on total polarization charges =  0.01549
 SCF Done:  E(RCAM-B3LYP) =  -633.332294725     A.U. after   14 cycles
            NFock= 14  Conv=0.59D-08     -V/T= 2.0042
 KE= 6.307000213658D+02 PE=-3.277448989291D+03 EE= 1.112728839226D+03
 Leave Link  502 at Sat Jan 24 16:48:34 2026, MaxMem=  2147483648 cpu:             881.6 elap:              55.6
 (Enter /data/home/wyx/g16/l801.exe)
 DoSCS=F DFT=T ScalE2(SS,OS)=  1.000000  1.000000
 ExpMin= 9.52D-02 ExpMax= 2.70D+04 ExpMxC= 9.22D+02 IAcc=3 IRadAn=         5 AccDes= 0.00D+00
 HarFok:  IExCor=  205 AccDes= 0.00D+00 IRadAn=         5 IDoV=-2 UseB2=F ITyADJ=14
 ICtDFT= 12500011 ScaDFX=  1.000000  1.000000  1.000000  1.000000
 Largest valence mixing into a core orbital is  5.65D-05
 Largest core mixing into a valence orbital is  1.20D-05
 Range of M.O.s used for correlation:    15   356
 NBasis=   356 NAE=    52 NBE=    52 NFC=    14 NFV=     0
 NROrb=    342 NOA=    38 NOB=    38 NVA=   304 NVB=   304

 **** Warning!!: The largest alpha MO coefficient is  0.52593687D+02

 Leave Link  801 at Sat Jan 24 16:48:35 2026, MaxMem=  2147483648 cpu:               1.0 elap:               0.1
 (Enter /data/home/wyx/g16/l914.exe)
 RHF ground state
 Two-electron integrals replicated using symmetry.
 MDV=  2147483648 DFT=T DoStab=F Mixed=T DoRPA=T DoScal=F NonHer=T
 NEqPCM:  Using non-equilibrium solvation (IEInf=1, Eps=  78.3553, EpsInf=   1.7778)
 Inv3:  Mode=1 IEnd=    13167075.
 Iteration    1 A*A^-1 deviation from unit magnitude is 3.55D-15 for   1008.
 Iteration    1 A*A^-1 deviation from orthogonality  is 2.44D-15 for   1897   1455.
 Iteration    1 A^-1*A deviation from unit magnitude is 3.77D-15 for   1008.
 Iteration    1 A^-1*A deviation from orthogonality  is 2.64D-15 for   1502   1268.
 Making orbital integer symmetry assigments:
 Orbital symmetries:
       Occupied  (A) (A) (A) (A) (A) (A) (A) (A) (A) (A) (A) (A)
                 (A) (A) (A) (A) (A) (A) (A) (A) (A) (A) (A) (A)
                 (A) (A) (A) (A) (A) (A) (A) (A) (A) (A) (A) (A)
                 (A) (A) (A) (A) (A) (A) (A) (A) (A) (A) (A) (A)
                 (A) (A) (A) (A)
       Virtual   (A) (A) (A) (A) (A) (A) (A) (A) (A) (A) (A) (A)
                 (A) (A) (A) (A) (A) (A) (A) (A) (A) (A) (A) (A)
                 (A) (A) (A) (A) (A) (A) (A) (A) (A) (A) (A) (A)
                 (A) (A) (A) (A) (A) (A) (A) (A) (A) (A) (A) (A)
                 (A) (A) (A) (A) (A) (A) (A) (A) (A) (A) (A) (A)
                 (A) (A) (A) (A) (A) (A) (A) (A) (A) (A) (A) (A)
                 (A) (A) (A) (A) (A) (A) (A) (A) (A) (A) (A) (A)
                 (A) (A) (A) (A) (A) (A) (A) (A) (A) (A) (A) (A)
                 (A) (A) (A) (A) (A) (A) (A) (A) (A) (A) (A) (A)
                 (A) (A) (A) (A) (A) (A) (A) (A) (A) (A) (A) (A)
                 (A) (A) (A) (A) (A) (A) (A) (A) (A) (A) (A) (A)
                 (A) (A) (A) (A) (A) (A) (A) (A) (A) (A) (A) (A)
                 (A) (A) (A) (A) (A) (A) (A) (A) (A) (A) (A) (A)
                 (A) (A) (A) (A) (A) (A) (A) (A) (A) (A) (A) (A)
                 (A) (A) (A) (A) (A) (A) (A) (A) (A) (A) (A) (A)
                 (A) (A) (A) (A) (A) (A) (A) (A) (A) (A) (A) (A)
                 (A) (A) (A) (A) (A) (A) (A) (A) (A) (A) (A) (A)
                 (A) (A) (A) (A) (A) (A) (A) (A) (A) (A) (A) (A)
                 (A) (A) (A) (A) (A) (A) (A) (A) (A) (A) (A) (A)
                 (A) (A) (A) (A) (A) (A) (A) (A) (A) (A) (A) (A)
                 (A) (A) (A) (A) (A) (A) (A) (A) (A) (A) (A) (A)
                 (A) (A) (A) (A) (A) (A) (A) (A) (A) (A) (A) (A)
                 (A) (A) (A) (A) (A) (A) (A) (A) (A) (A) (A) (A)
                 (A) (A) (A) (A) (A) (A) (A) (A) (A) (A) (A) (A)
                 (A) (A) (A) (A) (A) (A) (A) (A) (A) (A) (A) (A)
                 (A) (A) (A) (A)
    24 initial guesses have been made.
 Convergence on wavefunction:    0.001000000000000
 Davidson Disk Diagonalization:  ConvIn= 1.00D-03 SkipCon=T Conv= 1.00D-03.
 Max sub-space:  2000 roots to seek:    24 dimension of matrix:        23104
 Iteration     1 Dimension    24 NMult     0 NNew     24
 CISAX will form    24 AO SS matrices at one time.
 NMat=    24 NSing=    24 JSym2X= 0.
 FoFJK:  IHMeth= 1 ICntrl=       0 DoSepK=T KAlg= 0 I1Cent=           0 FoldK=F
 IRaf=         1 NMat=      48 IRICut=       1 DoRegI=T DoRafI=F ISym2E= 0 IDoP0=3 IntGTp=3.
 New state      2 was old state      3
 New state      3 was old state      4
 New state      4 was old state      2
 New state      5 was old state      6
 New state      6 was old state      5
 Excitation Energies [eV] at current iteration:
 Root      1 :     3.992977144556439
 Root      2 :     4.345332074139236
 Root      3 :     4.560705176396607
 Root      4 :     5.566774673131356
 Root      5 :     6.273219317104064
 Root      6 :     6.507631284547470
 Root      7 :     6.834251310525642
 Root      8 :     6.893035705036538
 Root      9 :     7.013694299991450
 Root     10 :     7.173679706325327
 Root     11 :     7.257002873651258
 Root     12 :     7.483858145543517
 Root     13 :     7.632392139599461
 Root     14 :     7.682711899793379
 Root     15 :     7.839831454564298
 Root     16 :     8.063409883448521
 Root     17 :     8.186931258284119
 Root     18 :     8.307456205053363
 Root     19 :     8.368412512649355
 Root     20 :     8.701768250949034
 Root     21 :     8.825861319827833
 Root     22 :     8.970580564575259
 Root     23 :     9.082774090372437
 Root     24 :     9.251011316732093
 Iteration     2 Dimension    36 NMult    24 NNew     12
 CISAX will form    12 AO SS matrices at one time.
 NMat=    12 NSing=    12 JSym2X= 0.
 Root      1 not converged, maximum delta is    0.059202739154961
 Root      2 not converged, maximum delta is    0.071894797450910
 Root      3 not converged, maximum delta is    0.088306536483543
 Root      4 not converged, maximum delta is    0.269873322998063
 New state      5 was old state      6
 Root      5 not converged, maximum delta is    0.330674359487789
 New state      6 was old state      5
 Root      6 not converged, maximum delta is    0.203863324824249
 Excitation Energies [eV] at current iteration:
 Root      1 :     3.556223658124488   Change is   -0.436753486431951
 Root      2 :     4.103460098747847   Change is   -0.241871975391389
 Root      3 :     4.290363962505341   Change is   -0.270341213891266
 Root      4 :     5.216271202759557   Change is   -0.350503470371798
 Root      5 :     5.667626337084659   Change is   -0.840004947462811
 Root      6 :     6.152526092238074   Change is   -0.120693224865990
 Iteration     3 Dimension    48 NMult    36 NNew     12
 CISAX will form    12 AO SS matrices at one time.
 NMat=    12 NSing=    12 JSym2X= 0.
 Root      1 not converged, maximum delta is    0.009025846647863
 Root      2 not converged, maximum delta is    0.010486341276921
 Root      3 not converged, maximum delta is    0.013208077046292
 Root      4 not converged, maximum delta is    0.019688376369795
 Root      5 not converged, maximum delta is    0.020801930537350
 Root      6 not converged, maximum delta is    0.018315752980528
 Excitation Energies [eV] at current iteration:
 Root      1 :     3.538500828453692   Change is   -0.017722829670796
 Root      2 :     4.090148508608904   Change is   -0.013311590138944
 Root      3 :     4.276439486583780   Change is   -0.013924475921560
 Root      4 :     5.194240461434055   Change is   -0.022030741325503
 Root      5 :     5.642227527329892   Change is   -0.025398809754767
 Root      6 :     6.141405936317899   Change is   -0.011120155920175
 Iteration     4 Dimension    60 NMult    48 NNew     12
 CISAX will form    12 AO SS matrices at one time.
 NMat=    12 NSing=    12 JSym2X= 0.
 Root      1 not converged, maximum delta is    0.002109747733527
 Root      2 not converged, maximum delta is    0.002171509595633
 Root      3 not converged, maximum delta is    0.002057488696012
 Root      4 not converged, maximum delta is    0.002525242372900
 Root      5 not converged, maximum delta is    0.002964153969255
 Root      6 not converged, maximum delta is    0.003427804769707
 Excitation Energies [eV] at current iteration:
 Root      1 :     3.537020873808663   Change is   -0.001479954645029
 Root      2 :     4.089207691982569   Change is   -0.000940816626334
 Root      3 :     4.275659593306753   Change is   -0.000779893277028
 Root      4 :     5.192536795933560   Change is   -0.001703665500494
 Root      5 :     5.640010633992656   Change is   -0.002216893337236
 Root      6 :     6.140595011419323   Change is   -0.000810924898577
 Iteration     5 Dimension    72 NMult    60 NNew     12
 CISAX will form    12 AO SS matrices at one time.
 NMat=    12 NSing=    12 JSym2X= 0.
 Root      1 has converged.
 Root      2 has converged.
 Root      3 has converged.
 Root      4 has converged.
 Root      5 not converged, maximum delta is    0.001136353891606
 Root      6 not converged, maximum delta is    0.001051338983295
 Excitation Energies [eV] at current iteration:
 Root      1 :     3.536937418420029   Change is   -0.000083455388634
 Root      2 :     4.089159864533173   Change is   -0.000047827449396
 Root      3 :     4.275614288570428   Change is   -0.000045304736325
 Root      4 :     5.192377774431161   Change is   -0.000159021502399
 Root      5 :     5.639781001858593   Change is   -0.000229632134064
 Root      6 :     6.140531825322832   Change is   -0.000063186096490
 Iteration     6 Dimension    76 NMult    72 NNew      4
 CISAX will form     4 AO SS matrices at one time.
 NMat=     4 NSing=     4 JSym2X= 0.
 Root      1 has converged.
 Root      2 has converged.
 Root      3 has converged.
 Root      4 has converged.
 Root      5 has converged.
 Root      6 has converged.
 Excitation Energies [eV] at current iteration:
 Root      1 :     3.536937315964059   Change is   -0.000000102455970
 Root      2 :     4.089159618764036   Change is   -0.000000245769138
 Root      3 :     4.275614206702447   Change is   -0.000000081867981
 Root      4 :     5.192372328386480   Change is   -0.000005446044682
 Root      5 :     5.639765579018538   Change is   -0.000015422840055
 Root      6 :     6.140527042660795   Change is   -0.000004782662037
 Convergence achieved on expansion vectors.
 ***********************************************************************
 Excited states from <AA,BB:AA,BB> singles matrix:
 ***********************************************************************
 
 1PDM for each excited state written to RWF  633
 Ground to excited state transition densities written to RWF  633
 Ground to excited state transition electric dipole moments (Au):
       state          X           Y           Z        Dip. S.      Osc.
         1         1.4772      0.1396      0.0399      2.2031      0.1909
         2         0.1985      0.0106      0.0442      0.0415      0.0042
         3         0.0003      0.1148     -0.0380      0.0146      0.0015
         4         0.1263     -1.3096      0.1267      1.7471      0.2222
         5         0.1016     -1.4617      0.0566      2.1501      0.2971
         6        -0.0303      0.2253      0.0859      0.0591      0.0089
 Ground to excited state transition velocity dipole moments (Au):
       state          X           Y           Z        Dip. S.      Osc.
         1        -0.1843     -0.0140     -0.0060      0.0342      0.1753
         2        -0.0289     -0.0012     -0.0040      0.0009      0.0038
         3        -0.0002     -0.0169      0.0024      0.0003      0.0012
         4        -0.0263      0.2372     -0.0190      0.0573      0.2002
         5        -0.0213      0.2965     -0.0117      0.0885      0.2847
         6         0.0076     -0.0466     -0.0384      0.0037      0.0109
 Ground to excited state transition magnetic dipole moments (Au):
       state          X           Y           Z
         1        -0.1064     -0.0179      1.4145
         2         0.7993      0.1907      0.4481
         3         0.1093      0.9880      0.1497
         4         0.0541      0.0833     -0.0708
         5         0.2312      0.1156     -0.2487
         6         0.0039      0.0047     -0.0104
 Ground to excited state transition velocity quadrupole moments (Au):
       state          XX          YY          ZZ          XY          XZ          YZ
         1        -0.1614      0.0909     -0.0015      0.5217     -0.0660      0.0074
         2        -0.0054     -0.0063      0.0055      0.0820     -0.0278      0.0779
         3         0.0051     -0.0077      0.0271      0.0399     -0.0625      0.0019
         4        -1.1175      0.2323     -0.0101     -0.0681     -0.0744     -0.0487
         5        -0.7276      0.2940      0.0501     -0.1529     -0.0766      0.0455
         6        -0.2050     -0.2117      0.1967     -0.0149     -0.0290      0.0638
 <0|del|b> * <b|rxdel|0> + <0|del|b> * <b|delr+rdel|0>
 Rotatory Strengths (R) in cgs (10**-40 erg-esu-cm/Gauss)
       state          XX          YY          ZZ    R(velocity)    E-M Angle
         1       -33.1976     35.1955     60.2299     20.7426       87.50
         2        -5.6043    -63.1874    -49.5739    -39.4552      156.79
         3       -39.0029      0.5422    -35.3266    -24.5958      162.40
         4        74.1979     -0.1660     -1.1135     24.3061       47.63
         5       105.2495     -8.1655     12.9544     36.6795       72.41
         6        -0.9331      0.5371      1.0575      0.2205       73.28
 1/2[<0|r|b>*<b|rxdel|0> + (<0|rxdel|b>*<b|r|0>)*]
 Rotatory Strengths (R) in cgs (10**-40 erg-esu-cm/Gauss)
       state          XX          YY          ZZ     R(length)
         1       111.1658      1.7654    -39.8849     24.3488
         2      -112.1955     -1.4274    -14.0104    -42.5444
         3        -0.0254    -80.1805      4.0254    -25.3935
         4        -4.8301     77.1023      6.3455     26.2059
         5       -16.6021    119.4949      9.9503     37.6144
         6         0.0829     -0.7475      0.6329     -0.0106
  1/2[<0|del|b>*<b|r|0> + (<0|r|b>*<b|del|0>)*] (Au)
       state          X           Y           Z        Dip. S.   Osc.(frdel)
         1        -0.2722     -0.0020     -0.0002      0.2744      0.1829
         2        -0.0057     -0.0000     -0.0002      0.0059      0.0040
         3        -0.0000     -0.0019     -0.0001      0.0020      0.0014
         4        -0.0033     -0.3106     -0.0024      0.3164      0.2109
         5        -0.0022     -0.4334     -0.0007      0.4363      0.2908
         6        -0.0002     -0.0105     -0.0033      0.0140      0.0093

 Excitation energies and oscillator strengths:
 
 Excited State   1:      Singlet-A      3.5369 eV  350.54 nm  f=0.1909  <S**2>=0.000
      52 -> 53         0.69736
 This state for optimization and/or second-order correction.
 Total Energy, E(TD-HF/TD-DFT) =  -633.202314671    
 Copying the excited state density for this state as the 1-particle RhoCI density.
 
 Excited State   2:      Singlet-A      4.0892 eV  303.20 nm  f=0.0042  <S**2>=0.000
      50 -> 53         0.13093
      50 -> 54         0.18130
      51 -> 53         0.55817
      51 -> 54         0.32757
 
 Excited State   3:      Singlet-A      4.2756 eV  289.98 nm  f=0.0015  <S**2>=0.000
      49 -> 53         0.24145
      49 -> 54        -0.16732
      50 -> 53         0.50462
      50 -> 54        -0.27287
      50 -> 58         0.10844
      51 -> 53        -0.12576
      51 -> 54         0.20000
 
 Excited State   4:      Singlet-A      5.1924 eV  238.78 nm  f=0.2222  <S**2>=0.000
      52 -> 54         0.69706
 
 Excited State   5:      Singlet-A      5.6398 eV  219.84 nm  f=0.2971  <S**2>=0.000
      49 -> 53         0.61315
      50 -> 53        -0.27857
      51 -> 53         0.14662
 
 Excited State   6:      Singlet-A      6.1405 eV  201.91 nm  f=0.0089  <S**2>=0.000
      52 -> 55         0.66967
      52 -> 56        -0.11356
 SavETr:  write IOETrn=   770 NScale= 10 NData=  16 NLR=1 NState=    6 LETran=     118.
 Leave Link  914 at Sat Jan 24 16:50:58 2026, MaxMem=  2147483648 cpu:            2274.1 elap:             142.8
 (Enter /data/home/wyx/g16/l601.exe)
 Copying SCF densities to generalized density rwf, IOpCl= 0 IROHF=0.

 **********************************************************************

            Population analysis using the SCF density.

 **********************************************************************

 Orbital symmetries:
       Occupied  (A) (A) (A) (A) (A) (A) (A) (A) (A) (A) (A) (A)
                 (A) (A) (A) (A) (A) (A) (A) (A) (A) (A) (A) (A)
                 (A) (A) (A) (A) (A) (A) (A) (A) (A) (A) (A) (A)
                 (A) (A) (A) (A) (A) (A) (A) (A) (A) (A) (A) (A)
                 (A) (A) (A) (A)
       Virtual   (A) (A) (A) (A) (A) (A) (A) (A) (A) (A) (A) (A)
                 (A) (A) (A) (A) (A) (A) (A) (A) (A) (A) (A) (A)
                 (A) (A) (A) (A) (A) (A) (A) (A) (A) (A) (A) (A)
                 (A) (A) (A) (A) (A) (A) (A) (A) (A) (A) (A) (A)
                 (A) (A) (A) (A) (A) (A) (A) (A) (A) (A) (A) (A)
                 (A) (A) (A) (A) (A) (A) (A) (A) (A) (A) (A) (A)
                 (A) (A) (A) (A) (A) (A) (A) (A) (A) (A) (A) (A)
                 (A) (A) (A) (A) (A) (A) (A) (A) (A) (A) (A) (A)
                 (A) (A) (A) (A) (A) (A) (A) (A) (A) (A) (A) (A)
                 (A) (A) (A) (A) (A) (A) (A) (A) (A) (A) (A) (A)
                 (A) (A) (A) (A) (A) (A) (A) (A) (A) (A) (A) (A)
                 (A) (A) (A) (A) (A) (A) (A) (A) (A) (A) (A) (A)
                 (A) (A) (A) (A) (A) (A) (A) (A) (A) (A) (A) (A)
                 (A) (A) (A) (A) (A) (A) (A) (A) (A) (A) (A) (A)
                 (A) (A) (A) (A) (A) (A) (A) (A) (A) (A) (A) (A)
                 (A) (A) (A) (A) (A) (A) (A) (A) (A) (A) (A) (A)
                 (A) (A) (A) (A) (A) (A) (A) (A) (A) (A) (A) (A)
                 (A) (A) (A) (A) (A) (A) (A) (A) (A) (A) (A) (A)
                 (A) (A) (A) (A) (A) (A) (A) (A) (A) (A) (A) (A)
                 (A) (A) (A) (A) (A) (A) (A) (A) (A) (A) (A) (A)
                 (A) (A) (A) (A) (A) (A) (A) (A) (A) (A) (A) (A)
                 (A) (A) (A) (A) (A) (A) (A) (A) (A) (A) (A) (A)
                 (A) (A) (A) (A) (A) (A) (A) (A) (A) (A) (A) (A)
                 (A) (A) (A) (A) (A) (A) (A) (A) (A) (A) (A) (A)
                 (A) (A) (A) (A) (A) (A) (A) (A) (A) (A) (A) (A)
                 (A) (A) (A) (A)
 The electronic state is 1-A.
 Alpha  occ. eigenvalues --  -19.17986 -19.17537 -14.44021 -10.33528 -10.33270
 Alpha  occ. eigenvalues --  -10.31973 -10.31547 -10.25593 -10.25021 -10.24935
 Alpha  occ. eigenvalues --  -10.24718 -10.24623 -10.24177 -10.23869  -1.12112
 Alpha  occ. eigenvalues --   -1.11513  -1.07415  -0.91198  -0.90294  -0.83841
 Alpha  occ. eigenvalues --   -0.82488  -0.81473  -0.78513  -0.74018  -0.71072
 Alpha  occ. eigenvalues --   -0.68674  -0.61644  -0.58220  -0.56802  -0.55156
 Alpha  occ. eigenvalues --   -0.54488  -0.54028  -0.52574  -0.51906  -0.50671
 Alpha  occ. eigenvalues --   -0.50087  -0.49512  -0.49047  -0.48460  -0.48163
 Alpha  occ. eigenvalues --   -0.46786  -0.45430  -0.44931  -0.43344  -0.43044
 Alpha  occ. eigenvalues --   -0.42443  -0.42058  -0.42022  -0.32871  -0.32364
 Alpha  occ. eigenvalues --   -0.31448  -0.26286
 Alpha virt. eigenvalues --   -0.02346   0.02348   0.06537   0.08255   0.08830
 Alpha virt. eigenvalues --    0.10143   0.10721   0.12047   0.12726   0.13660
 Alpha virt. eigenvalues --    0.14262   0.15112   0.15705   0.16244   0.16991
 Alpha virt. eigenvalues --    0.17475   0.17687   0.18032   0.18187   0.19192
 Alpha virt. eigenvalues --    0.19963   0.22058   0.22732   0.23407   0.23533
 Alpha virt. eigenvalues --    0.24234   0.24812   0.25543   0.25793   0.26544
 Alpha virt. eigenvalues --    0.26869   0.27259   0.28762   0.29258   0.30250
 Alpha virt. eigenvalues --    0.31557   0.32033   0.32692   0.33656   0.34330
 Alpha virt. eigenvalues --    0.35381   0.35850   0.36843   0.38182   0.38854
 Alpha virt. eigenvalues --    0.39932   0.40905   0.41884   0.42301   0.42717
 Alpha virt. eigenvalues --    0.44058   0.44139   0.45348   0.45995   0.46162
 Alpha virt. eigenvalues --    0.47330   0.47896   0.48095   0.48345   0.48849
 Alpha virt. eigenvalues --    0.49572   0.49848   0.50849   0.51254   0.51437
 Alpha virt. eigenvalues --    0.52777   0.53195   0.53489   0.54182   0.54400
 Alpha virt. eigenvalues --    0.54638   0.55816   0.56140   0.56643   0.58116
 Alpha virt. eigenvalues --    0.58529   0.59221   0.60667   0.60812   0.62281
 Alpha virt. eigenvalues --    0.63103   0.65377   0.65967   0.66369   0.67846
 Alpha virt. eigenvalues --    0.68914   0.70381   0.71573   0.72558   0.73178
 Alpha virt. eigenvalues --    0.73699   0.73913   0.74802   0.76239   0.77306
 Alpha virt. eigenvalues --    0.78219   0.79540   0.81993   0.83649   0.84515
 Alpha virt. eigenvalues --    0.88728   0.92604   0.96265   0.99246   1.25280
 Alpha virt. eigenvalues --    1.25726   1.27303   1.27890   1.29359   1.31610
 Alpha virt. eigenvalues --    1.32476   1.32850   1.34049   1.35349   1.35884
 Alpha virt. eigenvalues --    1.36626   1.37137   1.38151   1.39255   1.39786
 Alpha virt. eigenvalues --    1.40076   1.40437   1.41221   1.41658   1.41788
 Alpha virt. eigenvalues --    1.43273   1.44084   1.44466   1.45305   1.46945
 Alpha virt. eigenvalues --    1.47964   1.48954   1.49591   1.50645   1.51131
 Alpha virt. eigenvalues --    1.52295   1.52499   1.53898   1.54355   1.57454
 Alpha virt. eigenvalues --    1.58176   1.60308   1.60751   1.61196   1.62226
 Alpha virt. eigenvalues --    1.62685   1.63373   1.64224   1.65304   1.66198
 Alpha virt. eigenvalues --    1.67174   1.67559   1.68056   1.68270   1.69020
 Alpha virt. eigenvalues --    1.69174   1.70118   1.70855   1.72244   1.72578
 Alpha virt. eigenvalues --    1.73169   1.75027   1.76059   1.76838   1.78556
 Alpha virt. eigenvalues --    1.79834   1.83401   1.84625   1.86099   1.86552
 Alpha virt. eigenvalues --    1.87051   1.87253   1.88303   1.89425   1.90868
 Alpha virt. eigenvalues --    1.91387   1.94349   1.95470   1.97982   1.99570
 Alpha virt. eigenvalues --    2.00787   2.03764   2.04367   2.06433   2.09398
 Alpha virt. eigenvalues --    2.11293   2.12982   2.14522   2.16743   2.19454
 Alpha virt. eigenvalues --    2.20980   2.21270   2.21704   2.22785   2.25837
 Alpha virt. eigenvalues --    2.26788   2.27641   2.28977   2.30528   2.31478
 Alpha virt. eigenvalues --    2.33245   2.34583   2.35642   2.36531   2.37617
 Alpha virt. eigenvalues --    2.39385   2.40314   2.41577   2.44330   2.44775
 Alpha virt. eigenvalues --    2.45542   2.47662   2.49677   2.50589   2.52056
 Alpha virt. eigenvalues --    2.52757   2.53192   2.54625   2.56767   2.58606
 Alpha virt. eigenvalues --    2.59175   2.60085   2.60871   2.61115   2.62510
 Alpha virt. eigenvalues --    2.64251   2.65330   2.66989   2.67628   2.69340
 Alpha virt. eigenvalues --    2.70439   2.71715   2.73105   2.73617   2.74310
 Alpha virt. eigenvalues --    2.76399   2.76738   2.77251   2.78089   2.79205
 Alpha virt. eigenvalues --    2.80703   2.81224   2.82429   2.83607   2.84458
 Alpha virt. eigenvalues --    2.85626   2.85905   2.87692   2.90490   2.91952
 Alpha virt. eigenvalues --    2.97505   2.99482   3.00934   3.04037   3.10042
 Alpha virt. eigenvalues --    3.11981   3.14333   3.16504   3.17206   3.18250
 Alpha virt. eigenvalues --    3.20619   3.22065   3.25015   3.26110   3.26795
 Alpha virt. eigenvalues --    3.26977   3.29238   3.33459   3.34422   3.36333
 Alpha virt. eigenvalues --    3.37145   3.38870   3.39764   3.40319   3.41655
 Alpha virt. eigenvalues --    3.42883   3.45073   3.45168   3.45987   3.47639
 Alpha virt. eigenvalues --    3.48635   3.49832   3.54922   3.57904   3.59406
 Alpha virt. eigenvalues --    3.59673   3.89721   3.99343   4.34203   4.35108
 Alpha virt. eigenvalues --   21.62925  21.78470  22.07933  22.10884  22.11380
 Alpha virt. eigenvalues --   22.13896  22.15442  22.17662  22.21136  22.25163
 Alpha virt. eigenvalues --   22.30701  31.93410  43.62556  43.64753
          Condensed to atoms (all electrons):
               1          2          3          4          5          6
     1  O    7.955841   0.000000  -0.000247   0.000017   0.016031   0.017313
     2  O    0.000000   7.990220   0.000368   0.000032  -0.201755   0.000949
     3  N   -0.000247   0.000368   6.396153   0.375025  -0.111103   0.334397
     4  H    0.000017   0.000032   0.375025   0.402106   0.016376  -0.045415
     5  C    0.016031  -0.201755  -0.111103   0.016376   6.959021  -0.052282
     6  C    0.017313   0.000949   0.334397  -0.045415  -0.052282   5.621602
     7  C   -0.000447  -0.027211   0.372048  -0.041098   0.359911  -0.089294
     8  C   -0.000142   0.710741   0.004653  -0.000610  -0.260305   0.027464
     9  C   -0.031068   0.017275   0.016084  -0.000284  -0.439764  -0.140551
    10  H    0.003306   0.000066   0.003768   0.000009  -0.029411  -0.014022
    11  H    0.018121  -0.000024  -0.001347   0.000017  -0.105836   0.024215
    12  C   -0.219497  -0.002146  -0.094133   0.014869   0.130302  -0.169169
    13  C    0.711097  -0.000030  -0.000018   0.000355   0.072698   0.179112
    14  C   -0.000005  -0.019199  -0.036429  -0.007177  -0.060725   0.005769
    15  H   -0.000000   0.004287   0.003414   0.000811   0.015504   0.006284
    16  H   -0.000000   0.001145  -0.003587   0.000862  -0.005088  -0.001827
    17  H   -0.000000   0.003408   0.002385   0.000755  -0.008069  -0.000696
    18  C   -0.000144  -0.107046  -0.000559   0.000018  -0.266291   0.000368
    19  H   -0.000004   0.009181   0.000003  -0.000001   0.025333   0.000025
    20  H    0.000017   0.001006   0.000014  -0.000000   0.001255   0.000246
    21  H    0.000087   0.003744   0.000120   0.000001   0.044179  -0.001101
    22  C   -0.108242   0.000000   0.000027   0.000107   0.003764  -0.008914
    23  H    0.004626  -0.000000  -0.000085  -0.000050  -0.000534  -0.033905
    24  H    0.001278  -0.000000  -0.000033  -0.000017  -0.000110   0.011401
    25  H    0.008066   0.000000   0.000032  -0.000002  -0.000131  -0.001377
    26  C    0.000900   0.000002  -0.030374  -0.006101  -0.000490   0.179436
    27  H   -0.000216  -0.000000   0.003091   0.000899   0.000076  -0.044085
    28  H   -0.000043  -0.000000  -0.002434   0.000439   0.000408  -0.035323
    29  H    0.000025  -0.000000   0.000097   0.000867  -0.000554  -0.048573
               7          8          9         10         11         12
     1  O   -0.000447  -0.000142  -0.031068   0.003306   0.018121  -0.219497
     2  O   -0.027211   0.710741   0.017275   0.000066  -0.000024  -0.002146
     3  N    0.372048   0.004653   0.016084   0.003768  -0.001347  -0.094133
     4  H   -0.041098  -0.000610  -0.000284   0.000009   0.000017   0.014869
     5  C    0.359911  -0.260305  -0.439764  -0.029411  -0.105836   0.130302
     6  C   -0.089294   0.027464  -0.140551  -0.014022   0.024215  -0.169169
     7  C    5.427058  -0.176737  -0.162362  -0.004747   0.018040  -0.005452
     8  C   -0.176737   5.369201   0.075795  -0.004390  -0.007753  -0.030086
     9  C   -0.162362   0.075795   6.221007   0.395929   0.521678   0.050378
    10  H   -0.004747  -0.004390   0.395929   0.548221  -0.034268  -0.023620
    11  H    0.018040  -0.007753   0.521678  -0.034268   0.502805  -0.105006
    12  C   -0.005452  -0.030086   0.050378  -0.023620  -0.105006   7.231259
    13  C    0.011619  -0.005742  -0.261133   0.002052  -0.000731  -0.378278
    14  C    0.243733  -0.047179   0.011180  -0.001364   0.000478  -0.003445
    15  H   -0.068783   0.005619  -0.000325   0.000089  -0.000003  -0.001024
    16  H   -0.023941   0.000039   0.000344  -0.000064   0.000052   0.000791
    17  H   -0.033087  -0.009594  -0.000269   0.000181  -0.000057  -0.000119
    18  C    0.003119   0.321185   0.000612  -0.009070   0.007887  -0.002512
    19  H    0.000395  -0.053110  -0.000101  -0.000020   0.000458  -0.000222
    20  H    0.001226  -0.022145  -0.008100   0.000956  -0.002295  -0.003567
    21  H    0.000142  -0.067621  -0.009505   0.002070  -0.005044   0.006374
    22  C    0.000004  -0.000041   0.003056   0.001429   0.001247  -0.251993
    23  H    0.000013  -0.000011   0.003370  -0.000115  -0.000093   0.063182
    24  H    0.000037   0.000003  -0.001921   0.000135  -0.000115  -0.011334
    25  H    0.000006   0.000003   0.000187  -0.000033  -0.000147   0.024996
    26  C    0.002187   0.000385   0.018796  -0.000701   0.000023  -0.075594
    27  H   -0.000781   0.000003  -0.000994  -0.000073   0.000002  -0.007426
    28  H   -0.000879  -0.000010  -0.000161  -0.000024   0.000046  -0.020148
    29  H    0.003846  -0.000005  -0.000491   0.000093  -0.000008   0.024152
              13         14         15         16         17         18
     1  O    0.711097  -0.000005  -0.000000  -0.000000  -0.000000  -0.000144
     2  O   -0.000030  -0.019199   0.004287   0.001145   0.003408  -0.107046
     3  N   -0.000018  -0.036429   0.003414  -0.003587   0.002385  -0.000559
     4  H    0.000355  -0.007177   0.000811   0.000862   0.000755   0.000018
     5  C    0.072698  -0.060725   0.015504  -0.005088  -0.008069  -0.266291
     6  C    0.179112   0.005769   0.006284  -0.001827  -0.000696   0.000368
     7  C    0.011619   0.243733  -0.068783  -0.023941  -0.033087   0.003119
     8  C   -0.005742  -0.047179   0.005619   0.000039  -0.009594   0.321185
     9  C   -0.261133   0.011180  -0.000325   0.000344  -0.000269   0.000612
    10  H    0.002052  -0.001364   0.000089  -0.000064   0.000181  -0.009070
    11  H   -0.000731   0.000478  -0.000003   0.000052  -0.000057   0.007887
    12  C   -0.378278  -0.003445  -0.001024   0.000791  -0.000119  -0.002512
    13  C    5.423936  -0.000073  -0.000010  -0.000027   0.000001   0.000361
    14  C   -0.000073   5.104786   0.384412   0.407140   0.426394   0.001331
    15  H   -0.000010   0.384412   0.570798  -0.025338  -0.028037   0.000276
    16  H   -0.000027   0.407140  -0.025338   0.509846  -0.026609  -0.000056
    17  H    0.000001   0.426394  -0.028037  -0.026609   0.508403  -0.000185
    18  C    0.000361   0.001331   0.000276  -0.000056  -0.000185   5.345125
    19  H   -0.000011   0.000067  -0.000006  -0.000017   0.000041   0.390647
    20  H   -0.000058  -0.000304  -0.000006  -0.000001   0.000032   0.394382
    21  H    0.000504   0.000133  -0.000018   0.000003  -0.000054   0.383838
    22  C    0.287596  -0.000023   0.000002   0.000000  -0.000000   0.000021
    23  H   -0.087903  -0.000001   0.000000   0.000000   0.000000   0.000003
    24  H   -0.022659  -0.000001   0.000000   0.000000  -0.000000  -0.000002
    25  H   -0.043127   0.000001  -0.000000  -0.000000  -0.000000  -0.000001
    26  C   -0.054680   0.001467  -0.000067  -0.000181   0.000055   0.000021
    27  H   -0.005967   0.000099  -0.000014   0.000002  -0.000001  -0.000000
    28  H    0.006355  -0.000098   0.000005  -0.000015   0.000003  -0.000001
    29  H   -0.000317  -0.000257   0.000133   0.000003  -0.000004   0.000000
              19         20         21         22         23         24
     1  O   -0.000004   0.000017   0.000087  -0.108242   0.004626   0.001278
     2  O    0.009181   0.001006   0.003744   0.000000  -0.000000  -0.000000
     3  N    0.000003   0.000014   0.000120   0.000027  -0.000085  -0.000033
     4  H   -0.000001  -0.000000   0.000001   0.000107  -0.000050  -0.000017
     5  C    0.025333   0.001255   0.044179   0.003764  -0.000534  -0.000110
     6  C    0.000025   0.000246  -0.001101  -0.008914  -0.033905   0.011401
     7  C    0.000395   0.001226   0.000142   0.000004   0.000013   0.000037
     8  C   -0.053110  -0.022145  -0.067621  -0.000041  -0.000011   0.000003
     9  C   -0.000101  -0.008100  -0.009505   0.003056   0.003370  -0.001921
    10  H   -0.000020   0.000956   0.002070   0.001429  -0.000115   0.000135
    11  H    0.000458  -0.002295  -0.005044   0.001247  -0.000093  -0.000115
    12  C   -0.000222  -0.003567   0.006374  -0.251993   0.063182  -0.011334
    13  C   -0.000011  -0.000058   0.000504   0.287596  -0.087903  -0.022659
    14  C    0.000067  -0.000304   0.000133  -0.000023  -0.000001  -0.000001
    15  H   -0.000006  -0.000006  -0.000018   0.000002   0.000000   0.000000
    16  H   -0.000017  -0.000001   0.000003   0.000000   0.000000   0.000000
    17  H    0.000041   0.000032  -0.000054  -0.000000   0.000000  -0.000000
    18  C    0.390647   0.394382   0.383838   0.000021   0.000003  -0.000002
    19  H    0.506987  -0.009838  -0.021828  -0.000000   0.000000   0.000000
    20  H   -0.009838   0.499438  -0.025519  -0.000011  -0.000000   0.000000
    21  H   -0.021828  -0.025519   0.535008   0.000014  -0.000000  -0.000000
    22  C   -0.000000  -0.000011   0.000014   5.414480   0.399060   0.401536
    23  H    0.000000  -0.000000  -0.000000   0.399060   0.534733  -0.026346
    24  H    0.000000   0.000000  -0.000000   0.401536  -0.026346   0.490443
    25  H   -0.000000  -0.000000  -0.000000   0.383460  -0.021634  -0.008152
    26  C    0.000000   0.000005  -0.000014  -0.028859   0.015754  -0.015662
    27  H   -0.000000   0.000000  -0.000000   0.009835  -0.010490  -0.000949
    28  H    0.000000   0.000000  -0.000000  -0.011443  -0.001279   0.001195
    29  H    0.000000  -0.000000   0.000000   0.001921   0.000730   0.000211
              25         26         27         28         29
     1  O    0.008066   0.000900  -0.000216  -0.000043   0.000025
     2  O    0.000000   0.000002  -0.000000  -0.000000  -0.000000
     3  N    0.000032  -0.030374   0.003091  -0.002434   0.000097
     4  H   -0.000002  -0.006101   0.000899   0.000439   0.000867
     5  C   -0.000131  -0.000490   0.000076   0.000408  -0.000554
     6  C   -0.001377   0.179436  -0.044085  -0.035323  -0.048573
     7  C    0.000006   0.002187  -0.000781  -0.000879   0.003846
     8  C    0.000003   0.000385   0.000003  -0.000010  -0.000005
     9  C    0.000187   0.018796  -0.000994  -0.000161  -0.000491
    10  H   -0.000033  -0.000701  -0.000073  -0.000024   0.000093
    11  H   -0.000147   0.000023   0.000002   0.000046  -0.000008
    12  C    0.024996  -0.075594  -0.007426  -0.020148   0.024152
    13  C   -0.043127  -0.054680  -0.005967   0.006355  -0.000317
    14  C    0.000001   0.001467   0.000099  -0.000098  -0.000257
    15  H   -0.000000  -0.000067  -0.000014   0.000005   0.000133
    16  H   -0.000000  -0.000181   0.000002  -0.000015   0.000003
    17  H   -0.000000   0.000055  -0.000001   0.000003  -0.000004
    18  C   -0.000001   0.000021  -0.000000  -0.000001   0.000000
    19  H   -0.000000   0.000000  -0.000000   0.000000   0.000000
    20  H   -0.000000   0.000005   0.000000   0.000000  -0.000000
    21  H   -0.000000  -0.000014  -0.000000  -0.000000   0.000000
    22  C    0.383460  -0.028859   0.009835  -0.011443   0.001921
    23  H   -0.021634   0.015754  -0.010490  -0.001279   0.000730
    24  H   -0.008152  -0.015662  -0.000949   0.001195   0.000211
    25  H    0.497209   0.001967   0.000891   0.000098  -0.000045
    26  C    0.001967   5.253624   0.425249   0.430953   0.388685
    27  H    0.000891   0.425249   0.509928  -0.024933  -0.026421
    28  H    0.000098   0.430953  -0.024933   0.476100  -0.017853
    29  H   -0.000045   0.388685  -0.026421  -0.017853   0.517128
 Mulliken charges:
               1
     1  O   -0.376668
     2  O   -0.385014
     3  N   -0.231329
     4  H    0.287192
     5  C   -0.102409
     6  C    0.277955
     7  C    0.191435
     8  C    0.170389
     9  C   -0.278660
    10  H    0.163619
    11  H    0.167661
    12  C   -0.141532
    13  C    0.165079
    14  C   -0.410710
    15  H    0.131995
    16  H    0.166524
    17  H    0.165124
    18  C   -0.463328
    19  H    0.152021
    20  H    0.173268
    21  H    0.154488
    22  C   -0.498034
    23  H    0.160976
    24  H    0.181061
    25  H    0.157733
    26  C   -0.506788
    27  H    0.172276
    28  H    0.199039
    29  H    0.156638
 Sum of Mulliken charges =  -0.00000
 Mulliken charges with hydrogens summed into heavy atoms:
               1
     1  O   -0.376668
     2  O   -0.385014
     3  N    0.055863
     5  C   -0.102409
     6  C    0.277955
     7  C    0.191435
     8  C    0.170389
     9  C    0.052619
    12  C   -0.141532
    13  C    0.165079
    14  C    0.052933
    18  C    0.016448
    22  C    0.001736
    26  C    0.021165
 Electronic spatial extent (au):  <R**2>=           3185.3676
 Charge=             -0.0000 electrons
 Dipole moment (field-independent basis, Debye):
    X=             -4.0694    Y=              7.4602    Z=             -0.4528  Tot=              8.5100
 Quadrupole moment (field-independent basis, Debye-Ang):
   XX=            -97.9003   YY=            -78.5529   ZZ=            -84.9717
   XY=            -12.8897   XZ=             -5.7810   YZ=             -1.3924
 Traceless Quadrupole moment (field-independent basis, Debye-Ang):
   XX=            -10.7587   YY=              8.5887   ZZ=              2.1699
   XY=            -12.8897   XZ=             -5.7810   YZ=             -1.3924
 Octapole moment (field-independent basis, Debye-Ang**2):
  XXX=           -109.7426  YYY=             64.8652  ZZZ=              2.1261  XYY=             34.8606
  XXY=             30.7823  XXZ=            -11.6901  XZZ=             -3.0753  YZZ=             -1.0508
  YYZ=              2.6648  XYZ=              4.8608
 Hexadecapole moment (field-independent basis, Debye-Ang**3):
 XXXX=          -3028.1505 YYYY=          -1269.7401 ZZZZ=           -158.2053 XXXY=            -40.6378
 XXXZ=            -68.8603 YYYX=            -89.3053 YYYZ=            -22.2811 ZZZX=              2.2652
 ZZZY=              6.0312 XXYY=           -690.5919 XXZZ=           -488.4002 YYZZ=           -241.4665
 XXYZ=             -4.9565 YYXZ=             -5.9021 ZZXY=              1.0959
 N-N= 9.006878339743D+02 E-N=-3.277448988536D+03  KE= 6.307000213658D+02
 Leave Link  601 at Sat Jan 24 16:51:00 2026, MaxMem=  2147483648 cpu:               0.7 elap:               0.1
 (Enter /data/home/wyx/g16/l9999.exe)
 Electronic transition elements 
                 1             2             3             4             5 
      1  -0.633202D+03 -0.633182D+03 -0.633175D+03 -0.633141D+03 -0.633125D+03
      2  -0.140118D+01 -0.177964D+00 -0.459984D-01  0.344956D+00  0.404821D+00
      3  -0.371530D+00 -0.576719D-01  0.107861D+00 -0.127462D+01 -0.140910D+01
      4  -0.319082D+00 -0.804272D-01  0.294186D-01 -0.582667D-01  0.253290D-01
      5   0.173459D+00  0.263027D-01  0.633207D-02 -0.585866D-01 -0.814800D-01
      6   0.495264D-01  0.874662D-02 -0.158516D-01  0.232003D+00  0.286102D+00
      7   0.405324D-01  0.930950D-02 -0.118466D-02  0.735393D-02 -0.480360D-02
      8   0.380390D+00 -0.713257D+00 -0.400992D+00 -0.914745D-01 -0.300331D+00
      9   0.170390D-01 -0.935097D-01  0.891585D+00  0.599994D-01  0.304428D-01
     10  -0.136652D+01 -0.598788D+00 -0.234053D+00  0.539196D-01  0.193686D+00
     11   0.216488D+00  0.451604D-01  0.513250D-01 -0.933885D+00 -0.656672D+00
     12  -0.272382D+00 -0.589704D-01 -0.318668D-01  0.119623D+00  0.273295D+00
     13  -0.161615D-01  0.753026D-02  0.493732D-02 -0.810075D-01 -0.146124D-03
     14  -0.466799D+00 -0.453295D-01 -0.216799D-01 -0.376444D+00 -0.191970D+00
     15  -0.153910D-01  0.830156D-02 -0.533060D-01 -0.269862D+00 -0.197011D+00
     16  -0.122472D+00 -0.932922D-01 -0.276948D-01 -0.543661D-01 -0.108859D+00
                 6 
      1  -0.633107D+03
      2  -0.303921D-01
      3   0.222022D+00
      4  -0.939928D-01
      5   0.102812D-02
      6  -0.462941D-01
      7   0.394359D-01
      8  -0.716640D-02
      9   0.311329D-02
     10   0.919432D-02
     11  -0.197420D+00
     12  -0.201659D+00
     13   0.179085D+00
     14   0.268264D-01
     15  -0.840734D-01
     16  -0.652019D-01
 1\1\GINC-CN015\SP\RCAM-B3LYP TD-FC\TZVP\C11H15N1O2\WYX\24-Jan-2026\0\\
 #p CAM-B3LYP TZVP em=gd3bj td(nstates=6,root=1) scrf=(Solvent=Water)\\
 Title Card Required\\0,1\O,0,2.748457,-1.558493,0.728631\O,0,-3.229811
 ,-1.640047,-1.109803\N,0,-0.708239,1.514503,0.12575\H,0,-1.015135,2.47
 1748,0.065893\C,0,-1.246662,-0.758185,-0.152331\C,0,0.642999,1.298798,
 0.2814\C,0,-1.617029,0.541347,-0.226974\C,0,-2.150747,-1.830756,-0.548
 098\C,0,0.099297,-1.110256,0.437972\H,0,-0.011436,-1.430557,1.482325\H
 ,0,0.527635,-1.967623,-0.076512\C,0,1.09445,0.025882,0.359932\C,0,2.49
 3394,-0.388562,0.456048\C,0,-2.93851,1.079914,-0.665233\H,0,-3.066702,
 2.107657,-0.324655\H,0,-3.017391,1.069499,-1.752774\H,0,-3.762425,0.48
 073,-0.289131\C,0,-1.736888,-3.247363,-0.248883\H,0,-2.579158,-3.92017
 5,-0.391694\H,0,-0.933239,-3.558549,-0.920409\H,0,-1.358799,-3.35994,0
 .767697\C,0,3.649444,0.544916,0.194007\H,0,3.462531,1.237932,-0.621924
 \H,0,3.877655,1.126336,1.088789\H,0,4.519314,-0.064837,-0.038473\C,0,1
 .422179,2.577496,0.336861\H,0,2.261569,2.523773,1.019304\H,0,1.796621,
 2.847159,-0.651685\H,0,0.776628,3.387655,0.673968\\Version=ES64L-G16Re
 vA.03\State=1-A\HF=-633.3322947\RMSD=5.938e-09\PG=C01 [X(C11H15N1O2)]\
 \@


 OLD HORSE! OLD HORSE! WHAT BROUGHT YOU HERE?
 FROM SACARAP' TO PORTLAND PIER
 I'VE CARTED STONE THIS MANY A YEAR;
 TILL, KILLED BY BLOWS AND SORE ABUSE,
 THEY SALTED ME DOWN FOR SAILORS' USE.
 THE SAILORS THEY DO ME DESPISE;
 THEY TURN ME OVER AND DAMN MY EYES;
 CUT OFF MY MEAT, AND SCRAPE MY BONES,
 AND PITCH ME OVER TO DAVY JONES.

    SAILORS' COMPLAINT ABOUT THE BEEF
    SERVED ON SHIPBOARD, CIRCA 1835.
 Job cpu time:       0 days  0 hours 52 minutes 55.9 seconds.
 Elapsed time:       0 days  0 hours  3 minutes 19.8 seconds.
 File lengths (MBytes):  RWF=    828 Int=      0 D2E=      0 Chk=     34 Scr=      1
 Normal termination of Gaussian 16 at Sat Jan 24 16:51:03 2026.
