 Entering Gaussian System, Link 0=g16
 Input=DDL-S1-cLR-gs-14.gjf
 Output=DDL-S1-cLR-gs-14.log
 Initial command:
 /data/home/wyx/g16/l1.exe "/scr/tmp/wyx/13119/Gau-1531432.inp" -scrdir="/scr/tmp/wyx/13119/"
 Entering Link 1 = /data/home/wyx/g16/l1.exe PID=   1531433.
  
 Copyright (c) 1988,1990,1992,1993,1995,1998,2003,2009,2016,
            Gaussian, Inc.  All Rights Reserved.
  
 This is part of the Gaussian(R) 16 program.  It is based on
 the Gaussian(R) 09 system (copyright 2009, Gaussian, Inc.),
 the Gaussian(R) 03 system (copyright 2003, Gaussian, Inc.),
 the Gaussian(R) 98 system (copyright 1998, Gaussian, Inc.),
 the Gaussian(R) 94 system (copyright 1995, Gaussian, Inc.),
 the Gaussian 92(TM) system (copyright 1992, Gaussian, Inc.),
 the Gaussian 90(TM) system (copyright 1990, Gaussian, Inc.),
 the Gaussian 88(TM) system (copyright 1988, Gaussian, Inc.),
 the Gaussian 86(TM) system (copyright 1986, Carnegie Mellon
 University), and the Gaussian 82(TM) system (copyright 1983,
 Carnegie Mellon University). Gaussian is a federally registered
 trademark of Gaussian, Inc.
  
 This software contains proprietary and confidential information,
 including trade secrets, belonging to Gaussian, Inc.
  
 This software is provided under written license and may be
 used, copied, transmitted, or stored only in accord with that
 written license.
  
 The following legend is applicable only to US Government
 contracts under FAR:
  
                    RESTRICTED RIGHTS LEGEND
  
 Use, reproduction and disclosure by the US Government is
 subject to restrictions as set forth in subparagraphs (a)
 and (c) of the Commercial Computer Software - Restricted
 Rights clause in FAR 52.227-19.
  
 Gaussian, Inc.
 340 Quinnipiac St., Bldg. 40, Wallingford CT 06492
  
  
 ---------------------------------------------------------------
 Warning -- This program may not be used in any manner that
 competes with the business of Gaussian, Inc. or will provide
 assistance to any competitor of Gaussian, Inc.  The licensee
 of this program is prohibited from giving any competitor of
 Gaussian, Inc. access to this program.  By using this program,
 the user acknowledges that Gaussian, Inc. is engaged in the
 business of creating and licensing software in the field of
 computational chemistry and represents and warrants to the
 licensee that it is not a competitor of Gaussian, Inc. and that
 it will not use this program in any manner prohibited above.
 ---------------------------------------------------------------
  

 Cite this work as:
 Gaussian 16, Revision A.03,
 M. J. Frisch, G. W. Trucks, H. B. Schlegel, G. E. Scuseria, 
 M. A. Robb, J. R. Cheeseman, G. Scalmani, V. Barone, 
 G. A. Petersson, H. Nakatsuji, X. Li, M. Caricato, A. V. Marenich, 
 J. Bloino, B. G. Janesko, R. Gomperts, B. Mennucci, H. P. Hratchian, 
 J. V. Ortiz, A. F. Izmaylov, J. L. Sonnenberg, D. Williams-Young, 
 F. Ding, F. Lipparini, F. Egidi, J. Goings, B. Peng, A. Petrone, 
 T. Henderson, D. Ranasinghe, V. G. Zakrzewski, J. Gao, N. Rega, 
 G. Zheng, W. Liang, M. Hada, M. Ehara, K. Toyota, R. Fukuda, 
 J. Hasegawa, M. Ishida, T. Nakajima, Y. Honda, O. Kitao, H. Nakai, 
 T. Vreven, K. Throssell, J. A. Montgomery, Jr., J. E. Peralta, 
 F. Ogliaro, M. J. Bearpark, J. J. Heyd, E. N. Brothers, K. N. Kudin, 
 V. N. Staroverov, T. A. Keith, R. Kobayashi, J. Normand, 
 K. Raghavachari, A. P. Rendell, J. C. Burant, S. S. Iyengar, 
 J. Tomasi, M. Cossi, J. M. Millam, M. Klene, C. Adamo, R. Cammi, 
 J. W. Ochterski, R. L. Martin, K. Morokuma, O. Farkas, 
 J. B. Foresman, and D. J. Fox, Gaussian, Inc., Wallingford CT, 2016.
 
 ******************************************
 Gaussian 16:  ES64L-G16RevA.03 25-Dec-2016
                24-Jan-2026 
 ******************************************
 %nprocshared=16
 Will use up to   16 processors via shared memory.
 %mem=16GB
 %oldchk=DDL-S1-cLR-14.chk
 %chk=DDL-S1-cLR-gs-14.chk
 Copying data from "DDL-S1-cLR-14.chk" to current chk file "DDL-S1-cLR-gs-14.chk"
 IOpt=  2 FromEx=T IUOpen= 4 IOptOp= 5 NList=   0 IFRang= 0 IUIn= 4 IUOut= 2.
 ----------------------------------------------------------------------
 #p CAM-B3LYP TZVP em=gd3bj scrf=(Solvent=Water,NonEquilibrium=Read) Ge
 om=Check Guess=Read
 ----------------------------------------------------------------------
 1/29=2,38=1,172=1/1;
 2/12=2,40=1/2;
 3/5=19,7=101,11=2,14=-4,25=1,30=1,70=6002201,72=1,74=-40,116=-2,124=41/1,2,3;
 4/5=1/1;
 5/5=2,38=6,53=1/2;
 6/7=2,8=2,9=2,10=2,28=1/1;
 99/5=1,9=1/99;
 Leave Link    1 at Sat Jan 24 23:42:12 2026, MaxMem=  2147483648 cpu:               0.8 elap:               0.1
 (Enter /data/home/wyx/g16/l101.exe)
 -------------------
 Title Card Required
 -------------------
 Structure from the checkpoint file:  "DDL-S1-cLR-gs-14.chk"
 Charge =  0 Multiplicity = 1
 Z-Matrix found in chk file.
 O,0,2.749979,-1.558588,0.723699
 O,0,-3.244534,-1.642441,-1.082119
 N,0,-0.703553,1.5158,0.109569
 H,0,-1.010013,2.472961,0.047375
 C,0,-1.245679,-0.758895,-0.153988
 C,0,0.645308,1.300378,0.270669
 C,0,-1.61571,0.54106,-0.231587
 C,0,-2.152033,-1.828898,-0.535311
 C,0,0.105987,-1.111751,0.421047
 H,0,0.00446,-1.445129,1.461992
 H,0,0.532768,-1.96106,-0.108387
 C,0,1.097655,0.027474,0.352242
 C,0,2.494822,-0.386663,0.457875
 C,0,-2.938772,1.07808,-0.661136
 H,0,-3.090105,2.089157,-0.281005
 H,0,-3.009641,1.113732,-1.749021
 H,0,-3.763939,0.459725,-0.319289
 C,0,-1.746545,-3.247606,-0.246257
 H,0,-2.598755,-3.919135,-0.327135
 H,0,-0.990521,-3.582959,-0.960812
 H,0,-1.309271,-3.365095,0.745734
 C,0,3.65222,0.549983,0.214947
 H,0,3.477522,1.242081,-0.604457
 H,0,3.864441,1.132729,1.112726
 H,0,4.526694,-0.058477,-0.003015
 C,0,1.42418,2.579019,0.328225
 H,0,2.251997,2.53045,1.025222
 H,0,1.815846,2.840622,-0.655711
 H,0,0.775194,3.393445,0.64791
 Recover connectivity data from disk.
 ITRead=  0  0  0  0  0  0  0  0  0  0  0  0  0  0  0  0  0  0  0  0
 ITRead=  0  0  0  0  0  0  0  0  0
 MicOpt= -1 -1 -1 -1 -1 -1 -1 -1 -1 -1 -1 -1 -1 -1 -1 -1 -1 -1 -1 -1
 MicOpt= -1 -1 -1 -1 -1 -1 -1 -1 -1
 NAtoms=     29 NQM=       29 NQMF=       0 NMMI=      0 NMMIF=      0
                NMic=       0 NMicF=      0.
                    Isotopes and Nuclear Properties:
 (Nuclear quadrupole moments (NQMom) in fm**2, nuclear magnetic moments (NMagM)
  in nuclear magnetons)

  Atom         1           2           3           4           5           6           7           8           9          10
 IAtWgt=          16          16          14           1          12          12          12          12          12           1
 AtmWgt=  15.9949146  15.9949146  14.0030740   1.0078250  12.0000000  12.0000000  12.0000000  12.0000000  12.0000000   1.0078250
 NucSpn=           0           0           2           1           0           0           0           0           0           1
 AtZEff=   5.6000000   5.6000000   4.5500000   1.0000000   3.6000000   3.6000000   3.6000000   3.6000000   3.6000000   1.0000000
 NQMom=    0.0000000   0.0000000   2.0440000   0.0000000   0.0000000   0.0000000   0.0000000   0.0000000   0.0000000   0.0000000
 NMagM=    0.0000000   0.0000000   0.4037610   2.7928460   0.0000000   0.0000000   0.0000000   0.0000000   0.0000000   2.7928460
 AtZNuc=   8.0000000   8.0000000   7.0000000   1.0000000   6.0000000   6.0000000   6.0000000   6.0000000   6.0000000   1.0000000

  Atom        11          12          13          14          15          16          17          18          19          20
 IAtWgt=           1          12          12          12           1           1           1          12           1           1
 AtmWgt=   1.0078250  12.0000000  12.0000000  12.0000000   1.0078250   1.0078250   1.0078250  12.0000000   1.0078250   1.0078250
 NucSpn=           1           0           0           0           1           1           1           0           1           1
 AtZEff=   1.0000000   3.6000000   3.6000000   3.6000000   1.0000000   1.0000000   1.0000000   3.6000000   1.0000000   1.0000000
 NQMom=    0.0000000   0.0000000   0.0000000   0.0000000   0.0000000   0.0000000   0.0000000   0.0000000   0.0000000   0.0000000
 NMagM=    2.7928460   0.0000000   0.0000000   0.0000000   2.7928460   2.7928460   2.7928460   0.0000000   2.7928460   2.7928460
 AtZNuc=   1.0000000   6.0000000   6.0000000   6.0000000   1.0000000   1.0000000   1.0000000   6.0000000   1.0000000   1.0000000

  Atom        21          22          23          24          25          26          27          28          29
 IAtWgt=           1          12           1           1           1          12           1           1           1
 AtmWgt=   1.0078250  12.0000000   1.0078250   1.0078250   1.0078250  12.0000000   1.0078250   1.0078250   1.0078250
 NucSpn=           1           0           1           1           1           0           1           1           1
 AtZEff=   1.0000000   3.6000000   1.0000000   1.0000000   1.0000000   3.6000000   1.0000000   1.0000000   1.0000000
 NQMom=    0.0000000   0.0000000   0.0000000   0.0000000   0.0000000   0.0000000   0.0000000   0.0000000   0.0000000
 NMagM=    2.7928460   0.0000000   2.7928460   2.7928460   2.7928460   0.0000000   2.7928460   2.7928460   2.7928460
 AtZNuc=   1.0000000   6.0000000   1.0000000   1.0000000   1.0000000   6.0000000   1.0000000   1.0000000   1.0000000
 Leave Link  101 at Sat Jan 24 23:42:15 2026, MaxMem=  2147483648 cpu:               0.9 elap:               0.1
 (Enter /data/home/wyx/g16/l202.exe)
                          Input orientation:                          
 ---------------------------------------------------------------------
 Center     Atomic      Atomic             Coordinates (Angstroms)
 Number     Number       Type             X           Y           Z
 ---------------------------------------------------------------------
      1          8           0        2.749979   -1.558588    0.723699
      2          8           0       -3.244534   -1.642441   -1.082119
      3          7           0       -0.703553    1.515800    0.109569
      4          1           0       -1.010013    2.472961    0.047375
      5          6           0       -1.245679   -0.758895   -0.153988
      6          6           0        0.645308    1.300378    0.270669
      7          6           0       -1.615710    0.541060   -0.231587
      8          6           0       -2.152033   -1.828898   -0.535311
      9          6           0        0.105987   -1.111751    0.421047
     10          1           0        0.004460   -1.445129    1.461992
     11          1           0        0.532768   -1.961060   -0.108387
     12          6           0        1.097655    0.027474    0.352242
     13          6           0        2.494822   -0.386663    0.457875
     14          6           0       -2.938772    1.078080   -0.661136
     15          1           0       -3.090105    2.089157   -0.281005
     16          1           0       -3.009641    1.113732   -1.749021
     17          1           0       -3.763939    0.459725   -0.319289
     18          6           0       -1.746545   -3.247606   -0.246257
     19          1           0       -2.598755   -3.919135   -0.327135
     20          1           0       -0.990521   -3.582959   -0.960812
     21          1           0       -1.309271   -3.365095    0.745734
     22          6           0        3.652220    0.549983    0.214947
     23          1           0        3.477522    1.242081   -0.604457
     24          1           0        3.864441    1.132729    1.112726
     25          1           0        4.526694   -0.058477   -0.003015
     26          6           0        1.424180    2.579019    0.328225
     27          1           0        2.251997    2.530450    1.025222
     28          1           0        1.815846    2.840622   -0.655711
     29          1           0        0.775194    3.393445    0.647910
 ---------------------------------------------------------------------
                    Distance matrix (angstroms):
                    1          2          3          4          5
     1  O    0.000000
     2  O    6.261166   0.000000
     3  N    4.664322   4.225067   0.000000
     4  H    5.554128   4.817196   1.006947   0.000000
     5  C    4.168348   2.374342   2.353211   3.246687   0.000000
     6  C    3.578905   5.061728   1.375422   2.040808   2.827856
     7  C    4.937645   2.853796   1.377874   2.043754   1.353820
     8  C    5.068323   1.235849   3.701482   4.488844   1.453200
     9  C    2.698510   3.710408   2.767020   3.772963   1.510686
    10  H    2.845316   4.131270   3.331281   4.287392   2.155262
    11  H    2.402161   3.913781   3.696559   4.697337   2.147127
    12  C    2.320290   4.868328   2.349118   3.242779   2.523065
    13  C    1.228485   6.073612   3.737684   4.542007   3.808449
    14  C    6.421189   2.769829   2.404535   2.483504   2.549165
    15  H    6.958596   3.819745   2.485340   2.140542   3.395503
    16  H    6.813873   2.845421   2.988989   3.012151   3.026950
    17  H    6.898735   2.295821   3.265758   3.430987   2.802498
    18  C    4.900237   2.349296   4.889221   5.775256   2.540288
    19  H    5.940151   2.484022   5.772436   6.597215   3.442080
    20  H    4.574603   2.976726   5.217797   6.139299   2.948119
    21  H    4.443137   3.170777   4.959308   5.887288   2.757865
    22  C    2.349242   7.352164   4.462809   5.046022   5.083177
    23  H    3.183876   7.330393   4.250429   4.698715   5.149316
    24  H    2.938802   7.940808   4.692509   5.166381   5.594295
    25  H    2.436219   8.004086   5.463196   6.088172   5.816672
    26  C    4.362790   6.450324   2.388617   2.452635   4.301435
    27  H    4.130270   7.215661   3.256257   3.405906   4.944094
    28  H    4.704086   6.774003   2.947572   2.935129   4.751966
    29  H    5.331806   6.671684   2.449909   2.096401   4.687099
                    6          7          8          9         10
     6  C    0.000000
     7  C    2.437422   0.000000
     8  C    4.274001   2.448794   0.000000
     9  C    2.476257   2.474259   2.554912   0.000000
    10  H    3.060677   3.072150   2.964281   1.097732   0.000000
    11  H    3.285320   3.300264   2.721743   1.088011   1.735334
    12  C    1.353350   2.822583   3.846341   1.511944   2.143637
    13  C    2.510350   4.269953   4.965856   2.496726   2.886261
    14  C    3.709893   1.491106   3.014185   3.903465   4.420053
    15  H    3.857438   2.138431   4.036806   4.577520   5.010544
    16  H    4.180028   2.138598   3.296613   4.401035   5.093445
    17  H    4.527274   2.151556   2.807615   4.241929   4.582822
    18  C    5.164526   3.790953   1.503564   2.905004   3.038594
    19  H    6.174515   4.568243   2.147554   3.969485   4.012282
    20  H    5.295230   4.234402   2.146367   3.036237   3.380870
    21  H    5.080620   4.038206   2.170536   2.680660   2.434170
    22  C    3.099632   5.286829   6.317540   3.921684   4.340708
    23  H    2.964908   5.154753   6.413079   4.237857   4.853192
    24  H    3.331664   5.673562   6.905449   4.431939   4.654760
    25  H    4.121474   6.175825   6.929872   4.564194   4.951732
    26  C    1.498291   3.702377   5.741492   3.920208   4.415292
    27  H    2.159601   4.527295   6.390200   4.270365   4.587747
    28  H    2.144922   4.152523   6.128864   4.438950   5.112088
    29  H    2.130754   3.824400   6.102584   4.560274   4.966745
                   11         12         13         14         15
    11  H    0.000000
    12  C    2.117910   0.000000
    13  C    2.578572   1.461076   0.000000
    14  C    4.646880   4.292255   5.737735   0.000000
    15  H    5.436843   4.710507   6.153620   1.090724   0.000000
    16  H    4.969375   4.739741   6.117245   1.090774   1.764369
    17  H    4.936230   4.926753   6.363367   1.086335   1.763680
    18  C    2.620969   4.378792   5.164300   4.506117   5.503399
    19  H    3.699776   5.449837   6.248130   5.019893   6.028526
    20  H    2.382770   4.372621   4.937266   5.060709   6.086320
    21  H    2.468592   4.178236   4.839943   4.937242   5.828759
    22  C    4.017569   2.611066   1.508605   6.669901   6.933540
    23  H    4.379244   2.838012   2.178774   6.418640   6.629923
    24  H    4.707727   3.074903   2.147845   7.030880   7.157021
    25  H    4.425197   3.448464   2.109177   7.580110   7.918664
    26  C    4.647318   2.572465   3.155686   4.718793   4.581473
    27  H    4.941101   2.837304   2.981677   5.647766   5.517157
    28  H    5.000200   3.073364   3.480869   5.070796   4.977294
    29  H    5.413084   3.394284   4.157217   4.568157   4.183848
                   16         17         18         19         20
    16  H    0.000000
    17  H    1.743796   0.000000
    18  C    4.782780   4.221317   0.000000
    19  H    5.245983   4.531239   1.088005   0.000000
    20  H    5.172719   4.944360   1.092988   1.760959   0.000000
    21  H    5.401384   4.667860   1.090440   1.766572   1.749676
    22  C    6.968169   7.435924   6.616725   7.703347   6.326031
    23  H    6.588610   7.289181   6.897570   7.977230   6.585697
    24  H    7.446003   7.790750   7.246884   8.328711   7.078695
    25  H    7.824254   8.312831   7.041537   8.110595   6.616571
    26  C    5.110850   5.641565   6.658310   7.670692   6.742579
    27  H    6.114601   6.502853   7.140793   8.182653   7.199446
    28  H    5.240496   6.075842   7.065749   8.080283   7.016493
    29  H    5.026663   5.490530   7.159767   8.112217   7.374005
                   21         22         23         24         25
    21  H    0.000000
    22  C    6.342394   0.000000
    23  H    6.779563   1.086712   0.000000
    24  H    6.865304   1.091164   1.763627   0.000000
    25  H    6.749284   1.087399   1.775935   1.761371   0.000000
    26  C    6.555803   3.015623   2.621738   2.943140   4.085547
    27  H    6.893344   2.557229   2.411983   2.135710   3.596396
    28  H    7.088112   3.062245   2.306323   3.200158   4.022373
    29  H    7.073360   4.068171   3.674148   3.856208   5.139379
                   26         27         28         29
    26  C    0.000000
    27  H    1.083257   0.000000
    28  H    1.090857   1.764078   0.000000
    29  H    1.089344   1.751591   1.757270   0.000000
 Stoichiometry    C11H15NO2
 Framework group  C1[X(C11H15NO2)]
 Deg. of freedom    81
 Full point group                 C1      NOp   1
 RotChk:  IX=0 Diff= 6.15D-16
 Largest Abelian subgroup         C1      NOp   1
 Largest concise Abelian subgroup C1      NOp   1
                         Standard orientation:                         
 ---------------------------------------------------------------------
 Center     Atomic      Atomic             Coordinates (Angstroms)
 Number     Number       Type             X           Y           Z
 ---------------------------------------------------------------------
      1          8           0       -2.282088   -2.286562   -0.159304
      2          8           0        3.603087   -0.237059    0.446044
      3          7           0       -0.034254    1.799553   -0.241815
      4          1           0       -0.066864    2.805969   -0.244475
      5          6           0        1.289636   -0.139122   -0.079172
      6          6           0       -1.234076    1.135384   -0.136490
      7          6           0        1.201505    1.211825   -0.080537
      8          6           0        2.559832   -0.815512    0.123036
      9          6           0        0.058995   -0.962503   -0.378742
     10          1           0        0.077465   -1.315126   -1.418132
     11          1           0        0.051202   -1.866137    0.227189
     12          6           0       -1.231817   -0.217898   -0.123121
     13          6           0       -2.398331   -1.081089    0.046847
     14          6           0        2.316531    2.188545    0.081116
     15          1           0        2.042178    3.162766   -0.325458
     16          1           0        2.567157    2.322165    1.134264
     17          1           0        3.226522    1.858777   -0.412130
     18          6           0        2.617401   -2.304784   -0.075612
     19          1           0        3.647190   -2.645800   -0.159253
     20          1           0        2.164192   -2.822220    0.773790
     21          1           0        2.074154   -2.630926   -0.963065
     22          6           0       -3.741287   -0.570005    0.506362
     23          1           0       -3.667576    0.196470    1.273190
     24          1           0       -4.298761   -0.156171   -0.335422
     25          1           0       -4.300690   -1.418604    0.892864
     26          6           0       -2.399117    2.073207   -0.046804
     27          1           0       -3.272548    1.702185   -0.569209
     28          1           0       -2.671047    2.257485    0.993419
     29          1           0       -2.136415    3.032979   -0.490082
 ---------------------------------------------------------------------
 Rotational constants (GHZ):           1.0839637           0.4891773           0.3460594
 Leave Link  202 at Sat Jan 24 23:42:15 2026, MaxMem=  2147483648 cpu:               0.0 elap:               0.0
 (Enter /data/home/wyx/g16/l301.exe)
 Standard basis: TZVP (5D, 7F)
 Ernie: Thresh=  0.10000D-02 Tol=  0.10000D-05 Strict=F.
 There are   370 symmetry adapted cartesian basis functions of A   symmetry.
 There are   356 symmetry adapted basis functions of A   symmetry.
   356 basis functions,   610 primitive gaussians,   370 cartesian basis functions
    52 alpha electrons       52 beta electrons
       nuclear repulsion energy       900.6285814264 Hartrees.
 IExCor=20419 DFT=T Ex+Corr=CAM-B3LYP ExCW=0 ScaHFX=  1.000000
 ScaDFX=  1.000000  1.000000  1.000000  0.810000 ScalE2=  1.000000  1.000000
 IRadAn=      5 IRanWt=     -1 IRanGd=            0 ICorTp=0 IEmpDi=141
 HFx  wShort=  0.000000 wLong=  0.330000 cFull=  0.190000 cShort=  0.000000 cLong=  0.460000
 DFx  wShort=  0.000000 wLong=  0.330000 cFull=  0.190000 cShort=  0.000000 cLong=  0.460000
 NAtoms=   29 NActive=   29 NUniq=   29 SFac= 1.00D+00 NAtFMM=   60 NAOKFM=F Big=F
 Integral buffers will be    131072 words long.
 Raffenetti 2 integral format.
 Two-electron integral symmetry is turned on.
 R6Disp:  Grimme-D3(BJ) Dispersion energy=       -0.0261957601 Hartrees.
 Nuclear repulsion after empirical dispersion term =      900.6023856664 Hartrees.
 ------------------------------------------------------------------------------
 Polarizable Continuum Model (PCM)
 =================================
 Model                : PCM.
 Atomic radii         : UFF (Universal Force Field).
 Polarization charges : Total charges.
 Charge compensation  : None.
 Solution method      : On-the-fly selection.
 Cavity type          : Scaled VdW (van der Waals Surface) (Alpha=1.100).
 Cavity algorithm     : GePol (No added spheres)
                        Default sphere list used, NSphG=   29.
                        Lebedev-Laikov grids with approx.  5.0 points / Ang**2.
                        Smoothing algorithm: York/Karplus (Gamma=1.0000).
                        Polarization charges: spherical gaussians, with
                                              point-specific exponents (IZeta= 3).
                        Self-potential: point-specific (ISelfS= 7).
                        Self-field    : sphere-specific E.n sum rule (ISelfD= 2).
 Solvent              : Water, Eps=  78.355300 Eps(inf)=   1.777849
 ------------------------------------------------------------------------------
 GePol: Number of generator spheres                  =      29
 GePol: Total number of spheres                      =      29
 GePol: Number of exposed spheres                    =      29 (100.00%)
 GePol: Number of points                             =    2103
 GePol: Average weight of points                     =       0.13
 GePol: Minimum weight of points                     =   0.12D-09
 GePol: Maximum weight of points                     =    0.20577
 GePol: Number of points with low weight             =     140
 GePol: Fraction of low-weight points (<1% of avg)   =       6.66%
 GePol: Cavity surface area                          =    268.369 Ang**2
 GePol: Cavity volume                                =    286.184 Ang**3
 Leave Link  301 at Sat Jan 24 23:42:15 2026, MaxMem=  2147483648 cpu:               0.6 elap:               0.0
 (Enter /data/home/wyx/g16/l302.exe)
 NPDir=0 NMtPBC=     1 NCelOv=     1 NCel=       1 NClECP=     1 NCelD=      1
         NCelK=      1 NCelE2=     1 NClLst=     1 CellRange=     0.0.
 One-electron integrals computed using PRISM.
 One-electron integral symmetry used in STVInt
 NBasis=   356 RedAO= T EigKep=  4.57D-05  NBF=   356
 NBsUse=   356 1.00D-06 EigRej= -1.00D+00 NBFU=   356
 Precomputing XC quadrature grid using
 IXCGrd= 4 IRadAn=           5 IRanWt=          -1 IRanGd=           0 AccXCQ= 0.00D+00.
 Generated NRdTot=       0 NPtTot=           0 NUsed=           0 NTot=          32
 NSgBfM=   366   366   366   366   366 MxSgAt=    29 MxSgA2=    29.
 Leave Link  302 at Sat Jan 24 23:42:16 2026, MaxMem=  2147483648 cpu:               3.1 elap:               0.2
 (Enter /data/home/wyx/g16/l303.exe)
 DipDrv:  MaxL=1.
 Leave Link  303 at Sat Jan 24 23:42:16 2026, MaxMem=  2147483648 cpu:               0.6 elap:               0.0
 (Enter /data/home/wyx/g16/l401.exe)
 Initial guess from the checkpoint file:  "DDL-S1-cLR-gs-14.chk"
 B after Tr=    -0.000000    0.000000   -0.000000
         Rot=    1.000000   -0.000000   -0.000000   -0.000000 Ang=   0.00 deg.
 Guess basis will be translated and rotated to current coordinates.
 JPrj=2 DoOrth=T DoCkMO=T.
 Leave Link  401 at Sat Jan 24 23:42:16 2026, MaxMem=  2147483648 cpu:               2.2 elap:               0.2
 (Enter /data/home/wyx/g16/l502.exe)
 Integral symmetry usage will be decided dynamically.
 Closed shell SCF:
 Using DIIS extrapolation, IDIIS=  1040.
 NGot=  2147483648 LenX=  2147200095 LenY=  2147062754
 Requested convergence on RMS density matrix=1.00D-08 within 128 cycles.
 Requested convergence on MAX density matrix=1.00D-06.
 Requested convergence on             energy=1.00D-06.
 No special actions if energy rises.
 Fock matrices will be formed incrementally for  20 cycles.

 Cycle   1  Pass 1  IDiag  1:
 FoFJK:  IHMeth= 1 ICntrl=       0 DoSepK=T KAlg= 0 I1Cent=           0 FoldK=F
 IRaf=         1 NMat=       1 IRICut=       1 DoRegI=T DoRafI=F ISym2E= 0 IDoP0=0 IntGTp=1.
 FoFCou: FMM=F IPFlag=           0 FMFlag=      100000 FMFlg1=           0
         NFxFlg=           0 DoJE=T BraDBF=F KetDBF=F FulRan=T
         wScrn=  0.000000 ICntrl=       500 IOpCl=  0 I1Cent=           0 NGrid=           0
         NMat0=    1 NMatS0=      1 NMatT0=    0 NMatD0=    1 NMtDS0=    0 NMtDT0=    0
 Symmetry not used in FoFCou.
 Inv3:  Mode=1 IEnd=    13267827.
 Iteration    1 A*A^-1 deviation from unit magnitude is 2.89D-15 for    721.
 Iteration    1 A*A^-1 deviation from orthogonality  is 1.93D-15 for   1398    864.
 Iteration    1 A^-1*A deviation from unit magnitude is 2.89D-15 for    196.
 Iteration    1 A^-1*A deviation from orthogonality  is 1.97D-15 for   1510   1278.
 NEqPCM:  Using non-equilibrium solvation (IEInf=1, Eps=  78.3553, EpsInf=   1.7778)
 Inv3:  Mode=1 IEnd=    13267827.
 Iteration    1 A*A^-1 deviation from unit magnitude is 3.33D-15 for    231.
 Iteration    1 A*A^-1 deviation from orthogonality  is 2.08D-15 for    561    368.
 Iteration    1 A^-1*A deviation from unit magnitude is 3.33D-15 for    231.
 Iteration    1 A^-1*A deviation from orthogonality  is 2.55D-15 for   1510   1278.
 E= -633.331153036365    
 DIIS: error= 4.02D-04 at cycle   1 NSaved=   1.
 NSaved= 1 IEnMin= 1 EnMin= -633.331153036365     IErMin= 1 ErrMin= 4.02D-04
 ErrMax= 4.02D-04  0.00D+00 EMaxC= 1.00D-01 BMatC= 3.30D-05 BMatP= 3.30D-05
 IDIUse=3 WtCom= 9.96D-01 WtEn= 4.02D-03
 Coeff-Com:  0.100D+01
 Coeff-En:   0.100D+01
 Coeff:      0.100D+01
 Gap=     0.237 Goal=   None    Shift=    0.000
 RMSDP=2.33D-04 MaxDP=1.11D-02              OVMax= 5.80D-03

 Cycle   2  Pass 1  IDiag  1:
 RMSU=  2.32D-04    CP:  9.98D-01
 E= -633.331206421281     Delta-E=       -0.000053384916 Rises=F Damp=F
 DIIS: error= 2.51D-04 at cycle   2 NSaved=   2.
 NSaved= 2 IEnMin= 2 EnMin= -633.331206421281     IErMin= 2 ErrMin= 2.51D-04
 ErrMax= 2.51D-04  0.00D+00 EMaxC= 1.00D-01 BMatC= 2.68D-05 BMatP= 3.30D-05
 IDIUse=3 WtCom= 9.97D-01 WtEn= 2.51D-03
 Coeff-Com:  0.465D+00 0.535D+00
 Coeff-En:   0.000D+00 0.100D+01
 Coeff:      0.464D+00 0.536D+00
 Gap=     0.237 Goal=   None    Shift=    0.000
 RMSDP=5.07D-05 MaxDP=2.82D-03 DE=-5.34D-05 OVMax= 1.82D-03

 Cycle   3  Pass 1  IDiag  1:
 RMSU=  4.09D-05    CP:  1.00D+00  9.00D-01
 E= -633.331229571744     Delta-E=       -0.000023150463 Rises=F Damp=F
 DIIS: error= 1.33D-04 at cycle   3 NSaved=   3.
 NSaved= 3 IEnMin= 3 EnMin= -633.331229571744     IErMin= 3 ErrMin= 1.33D-04
 ErrMax= 1.33D-04  0.00D+00 EMaxC= 1.00D-01 BMatC= 4.02D-06 BMatP= 2.68D-05
 IDIUse=3 WtCom= 9.99D-01 WtEn= 1.33D-03
 Coeff-Com:  0.895D-01 0.264D+00 0.647D+00
 Coeff-En:   0.000D+00 0.179D-01 0.982D+00
 Coeff:      0.894D-01 0.263D+00 0.647D+00
 Gap=     0.237 Goal=   None    Shift=    0.000
 RMSDP=1.57D-05 MaxDP=6.45D-04 DE=-2.32D-05 OVMax= 8.23D-04

 Cycle   4  Pass 1  IDiag  1:
 RMSU=  1.48D-05    CP:  9.99D-01  8.92D-01  9.24D-01
 E= -633.331232726337     Delta-E=       -0.000003154592 Rises=F Damp=F
 DIIS: error= 2.68D-05 at cycle   4 NSaved=   4.
 NSaved= 4 IEnMin= 4 EnMin= -633.331232726337     IErMin= 4 ErrMin= 2.68D-05
 ErrMax= 2.68D-05  0.00D+00 EMaxC= 1.00D-01 BMatC= 3.59D-07 BMatP= 4.02D-06
 IDIUse=1 WtCom= 1.00D+00 WtEn= 0.00D+00
 Coeff-Com: -0.442D-02 0.422D-01 0.247D+00 0.715D+00
 Coeff:     -0.442D-02 0.422D-01 0.247D+00 0.715D+00
 Gap=     0.237 Goal=   None    Shift=    0.000
 RMSDP=8.61D-06 MaxDP=5.05D-04 DE=-3.15D-06 OVMax= 2.29D-04

 Cycle   5  Pass 1  IDiag  1:
 RMSU=  4.89D-06    CP:  1.00D+00  8.98D-01  1.07D+00  1.16D+00
 E= -633.331233020495     Delta-E=       -0.000000294158 Rises=F Damp=F
 DIIS: error= 1.12D-05 at cycle   5 NSaved=   5.
 NSaved= 5 IEnMin= 5 EnMin= -633.331233020495     IErMin= 5 ErrMin= 1.12D-05
 ErrMax= 1.12D-05  0.00D+00 EMaxC= 1.00D-01 BMatC= 6.84D-08 BMatP= 3.59D-07
 IDIUse=1 WtCom= 1.00D+00 WtEn= 0.00D+00
 Coeff-Com: -0.117D-01-0.187D-01 0.267D-01 0.332D+00 0.672D+00
 Coeff:     -0.117D-01-0.187D-01 0.267D-01 0.332D+00 0.672D+00
 Gap=     0.237 Goal=   None    Shift=    0.000
 RMSDP=2.23D-06 MaxDP=9.63D-05 DE=-2.94D-07 OVMax= 9.63D-05

 Cycle   6  Pass 1  IDiag  1:
 RMSU=  1.38D-06    CP:  1.00D+00  8.97D-01  1.09D+00  1.26D+00  1.06D+00
 E= -633.331233089615     Delta-E=       -0.000000069120 Rises=F Damp=F
 DIIS: error= 4.80D-06 at cycle   6 NSaved=   6.
 NSaved= 6 IEnMin= 6 EnMin= -633.331233089615     IErMin= 6 ErrMin= 4.80D-06
 ErrMax= 4.80D-06  0.00D+00 EMaxC= 1.00D-01 BMatC= 6.68D-09 BMatP= 6.84D-08
 IDIUse=1 WtCom= 1.00D+00 WtEn= 0.00D+00
 Coeff-Com: -0.297D-02-0.120D-01-0.101D-01 0.354D-01 0.242D+00 0.747D+00
 Coeff:     -0.297D-02-0.120D-01-0.101D-01 0.354D-01 0.242D+00 0.747D+00
 Gap=     0.237 Goal=   None    Shift=    0.000
 RMSDP=1.37D-06 MaxDP=7.87D-05 DE=-6.91D-08 OVMax= 6.55D-05

 Cycle   7  Pass 1  IDiag  1:
 RMSU=  5.16D-07    CP:  1.00D+00  8.95D-01  1.11D+00  1.31D+00  1.20D+00
                    CP:  1.09D+00
 E= -633.331233097216     Delta-E=       -0.000000007601 Rises=F Damp=F
 DIIS: error= 2.19D-06 at cycle   7 NSaved=   7.
 NSaved= 7 IEnMin= 7 EnMin= -633.331233097216     IErMin= 7 ErrMin= 2.19D-06
 ErrMax= 2.19D-06  0.00D+00 EMaxC= 1.00D-01 BMatC= 2.15D-09 BMatP= 6.68D-09
 IDIUse=1 WtCom= 1.00D+00 WtEn= 0.00D+00
 Coeff-Com:  0.467D-03-0.412D-02-0.665D-02-0.396D-01 0.354D-02 0.395D+00
 Coeff-Com:  0.651D+00
 Coeff:      0.467D-03-0.412D-02-0.665D-02-0.396D-01 0.354D-02 0.395D+00
 Coeff:      0.651D+00
 Gap=     0.237 Goal=   None    Shift=    0.000
 RMSDP=4.91D-07 MaxDP=2.80D-05 DE=-7.60D-09 OVMax= 2.36D-05

 Cycle   8  Pass 1  IDiag  1:
 RMSU=  2.07D-07    CP:  1.00D+00  8.95D-01  1.11D+00  1.32D+00  1.25D+00
                    CP:  1.22D+00  9.94D-01
 E= -633.331233099650     Delta-E=       -0.000000002434 Rises=F Damp=F
 DIIS: error= 6.07D-07 at cycle   8 NSaved=   8.
 NSaved= 8 IEnMin= 8 EnMin= -633.331233099650     IErMin= 8 ErrMin= 6.07D-07
 ErrMax= 6.07D-07  0.00D+00 EMaxC= 1.00D-01 BMatC= 1.49D-10 BMatP= 2.15D-09
 IDIUse=1 WtCom= 1.00D+00 WtEn= 0.00D+00
 Coeff-Com:  0.553D-03-0.538D-03 0.608D-03-0.171D-01-0.329D-01 0.266D-01
 Coeff-Com:  0.170D+00 0.853D+00
 Coeff:      0.553D-03-0.538D-03 0.608D-03-0.171D-01-0.329D-01 0.266D-01
 Coeff:      0.170D+00 0.853D+00
 Gap=     0.237 Goal=   None    Shift=    0.000
 RMSDP=1.99D-07 MaxDP=1.04D-05 DE=-2.43D-09 OVMax= 9.22D-06

 Cycle   9  Pass 1  IDiag  1:
 RMSU=  6.65D-08    CP:  1.00D+00  8.94D-01  1.11D+00  1.33D+00  1.27D+00
                    CP:  1.26D+00  1.08D+00  1.05D+00
 E= -633.331233099863     Delta-E=       -0.000000000213 Rises=F Damp=F
 DIIS: error= 1.37D-07 at cycle   9 NSaved=   9.
 NSaved= 9 IEnMin= 9 EnMin= -633.331233099863     IErMin= 9 ErrMin= 1.37D-07
 ErrMax= 1.37D-07  0.00D+00 EMaxC= 1.00D-01 BMatC= 1.44D-11 BMatP= 1.49D-10
 IDIUse=1 WtCom= 1.00D+00 WtEn= 0.00D+00
 Coeff-Com:  0.129D-03 0.255D-04 0.114D-02-0.845D-03-0.108D-01-0.347D-01
 Coeff-Com: -0.248D-01 0.258D+00 0.812D+00
 Coeff:      0.129D-03 0.255D-04 0.114D-02-0.845D-03-0.108D-01-0.347D-01
 Coeff:     -0.248D-01 0.258D+00 0.812D+00
 Gap=     0.237 Goal=   None    Shift=    0.000
 RMSDP=4.53D-08 MaxDP=1.86D-06 DE=-2.13D-10 OVMax= 2.66D-06

 Cycle  10  Pass 1  IDiag  1:
 RMSU=  1.65D-08    CP:  1.00D+00  8.94D-01  1.11D+00  1.33D+00  1.27D+00
                    CP:  1.28D+00  1.12D+00  1.13D+00  1.04D+00
 E= -633.331233099880     Delta-E=       -0.000000000017 Rises=F Damp=F
 DIIS: error= 3.59D-08 at cycle  10 NSaved=  10.
 NSaved=10 IEnMin=10 EnMin= -633.331233099880     IErMin=10 ErrMin= 3.59D-08
 ErrMax= 3.59D-08  0.00D+00 EMaxC= 1.00D-01 BMatC= 9.42D-13 BMatP= 1.44D-11
 IDIUse=1 WtCom= 1.00D+00 WtEn= 0.00D+00
 Coeff-Com:  0.112D-04 0.188D-04 0.355D-03 0.975D-03-0.132D-02-0.128D-01
 Coeff-Com: -0.210D-01 0.259D-01 0.270D+00 0.738D+00
 Coeff:      0.112D-04 0.188D-04 0.355D-03 0.975D-03-0.132D-02-0.128D-01
 Coeff:     -0.210D-01 0.259D-01 0.270D+00 0.738D+00
 Gap=     0.237 Goal=   None    Shift=    0.000
 RMSDP=1.08D-08 MaxDP=5.78D-07 DE=-1.68D-11 OVMax= 5.29D-07

 Cycle  11  Pass 1  IDiag  1:
 RMSU=  6.86D-09    CP:  1.00D+00  8.94D-01  1.11D+00  1.33D+00  1.27D+00
                    CP:  1.27D+00  1.13D+00  1.15D+00  1.08D+00  1.11D+00
 E= -633.331233099877     Delta-E=        0.000000000003 Rises=F Damp=F
 DIIS: error= 1.85D-08 at cycle  11 NSaved=  11.
 NSaved=11 IEnMin=10 EnMin= -633.331233099880     IErMin=11 ErrMin= 1.85D-08
 ErrMax= 1.85D-08  0.00D+00 EMaxC= 1.00D-01 BMatC= 1.72D-13 BMatP= 9.42D-13
 IDIUse=1 WtCom= 1.00D+00 WtEn= 0.00D+00
 Coeff-Com: -0.902D-05-0.443D-06 0.162D-04 0.519D-03 0.673D-03-0.107D-02
 Coeff-Com: -0.635D-02-0.191D-01 0.166D-01 0.320D+00 0.689D+00
 Coeff:     -0.902D-05-0.443D-06 0.162D-04 0.519D-03 0.673D-03-0.107D-02
 Coeff:     -0.635D-02-0.191D-01 0.166D-01 0.320D+00 0.689D+00
 Gap=     0.237 Goal=   None    Shift=    0.000
 RMSDP=5.10D-09 MaxDP=2.03D-07 DE= 2.84D-12 OVMax= 1.97D-07

 Error on total polarization charges =  0.00837
 SCF Done:  E(RCAM-B3LYP) =  -633.331233100     A.U. after   11 cycles
            NFock= 11  Conv=0.51D-08     -V/T= 2.0042
 KE= 6.306968241556D+02 PE=-3.277192978008D+03 EE= 1.112562535086D+03
 Leave Link  502 at Sat Jan 24 23:43:01 2026, MaxMem=  2147483648 cpu:             698.8 elap:              44.3
 (Enter /data/home/wyx/g16/l601.exe)
 Copying SCF densities to generalized density rwf, IOpCl= 0 IROHF=0.

 **********************************************************************

            Population analysis using the SCF density.

 **********************************************************************

 Orbital symmetries:
       Occupied  (A) (A) (A) (A) (A) (A) (A) (A) (A) (A) (A) (A)
                 (A) (A) (A) (A) (A) (A) (A) (A) (A) (A) (A) (A)
                 (A) (A) (A) (A) (A) (A) (A) (A) (A) (A) (A) (A)
                 (A) (A) (A) (A) (A) (A) (A) (A) (A) (A) (A) (A)
                 (A) (A) (A) (A)
       Virtual   (A) (A) (A) (A) (A) (A) (A) (A) (A) (A) (A) (A)
                 (A) (A) (A) (A) (A) (A) (A) (A) (A) (A) (A) (A)
                 (A) (A) (A) (A) (A) (A) (A) (A) (A) (A) (A) (A)
                 (A) (A) (A) (A) (A) (A) (A) (A) (A) (A) (A) (A)
                 (A) (A) (A) (A) (A) (A) (A) (A) (A) (A) (A) (A)
                 (A) (A) (A) (A) (A) (A) (A) (A) (A) (A) (A) (A)
                 (A) (A) (A) (A) (A) (A) (A) (A) (A) (A) (A) (A)
                 (A) (A) (A) (A) (A) (A) (A) (A) (A) (A) (A) (A)
                 (A) (A) (A) (A) (A) (A) (A) (A) (A) (A) (A) (A)
                 (A) (A) (A) (A) (A) (A) (A) (A) (A) (A) (A) (A)
                 (A) (A) (A) (A) (A) (A) (A) (A) (A) (A) (A) (A)
                 (A) (A) (A) (A) (A) (A) (A) (A) (A) (A) (A) (A)
                 (A) (A) (A) (A) (A) (A) (A) (A) (A) (A) (A) (A)
                 (A) (A) (A) (A) (A) (A) (A) (A) (A) (A) (A) (A)
                 (A) (A) (A) (A) (A) (A) (A) (A) (A) (A) (A) (A)
                 (A) (A) (A) (A) (A) (A) (A) (A) (A) (A) (A) (A)
                 (A) (A) (A) (A) (A) (A) (A) (A) (A) (A) (A) (A)
                 (A) (A) (A) (A) (A) (A) (A) (A) (A) (A) (A) (A)
                 (A) (A) (A) (A) (A) (A) (A) (A) (A) (A) (A) (A)
                 (A) (A) (A) (A) (A) (A) (A) (A) (A) (A) (A) (A)
                 (A) (A) (A) (A) (A) (A) (A) (A) (A) (A) (A) (A)
                 (A) (A) (A) (A) (A) (A) (A) (A) (A) (A) (A) (A)
                 (A) (A) (A) (A) (A) (A) (A) (A) (A) (A) (A) (A)
                 (A) (A) (A) (A) (A) (A) (A) (A) (A) (A) (A) (A)
                 (A) (A) (A) (A) (A) (A) (A) (A) (A) (A) (A) (A)
                 (A) (A) (A) (A)
 The electronic state is 1-A.
 Alpha  occ. eigenvalues --  -19.17910 -19.17403 -14.43798 -10.33444 -10.33208
 Alpha  occ. eigenvalues --  -10.31825 -10.31451 -10.25493 -10.24824 -10.24647
 Alpha  occ. eigenvalues --  -10.24572 -10.24486 -10.24235 -10.23832  -1.12034
 Alpha  occ. eigenvalues --   -1.11234  -1.07207  -0.91066  -0.90116  -0.83793
 Alpha  occ. eigenvalues --   -0.82408  -0.81419  -0.78441  -0.73807  -0.70987
 Alpha  occ. eigenvalues --   -0.68595  -0.61584  -0.58127  -0.56729  -0.54966
 Alpha  occ. eigenvalues --   -0.54306  -0.53966  -0.52479  -0.51858  -0.50571
 Alpha  occ. eigenvalues --   -0.50018  -0.49440  -0.48977  -0.48343  -0.48025
 Alpha  occ. eigenvalues --   -0.46693  -0.45341  -0.44814  -0.43149  -0.42847
 Alpha  occ. eigenvalues --   -0.42399  -0.41921  -0.41851  -0.32745  -0.32286
 Alpha  occ. eigenvalues --   -0.31385  -0.26039
 Alpha virt. eigenvalues --   -0.02323   0.02404   0.06714   0.08418   0.08969
 Alpha virt. eigenvalues --    0.10209   0.10813   0.12180   0.12818   0.13748
 Alpha virt. eigenvalues --    0.14364   0.15216   0.15789   0.16371   0.17101
 Alpha virt. eigenvalues --    0.17512   0.17714   0.18025   0.18195   0.19271
 Alpha virt. eigenvalues --    0.20006   0.22044   0.22951   0.23580   0.23609
 Alpha virt. eigenvalues --    0.24283   0.24811   0.25618   0.25812   0.26731
 Alpha virt. eigenvalues --    0.27076   0.27484   0.29001   0.29258   0.30313
 Alpha virt. eigenvalues --    0.31663   0.32239   0.32663   0.33852   0.34531
 Alpha virt. eigenvalues --    0.35520   0.36019   0.37006   0.38344   0.38939
 Alpha virt. eigenvalues --    0.39866   0.41150   0.42070   0.42517   0.42839
 Alpha virt. eigenvalues --    0.44172   0.44323   0.45421   0.46044   0.46286
 Alpha virt. eigenvalues --    0.47303   0.48120   0.48326   0.48562   0.48879
 Alpha virt. eigenvalues --    0.49690   0.49735   0.51067   0.51342   0.51463
 Alpha virt. eigenvalues --    0.52817   0.53232   0.53737   0.54249   0.54470
 Alpha virt. eigenvalues --    0.54753   0.55878   0.56132   0.56747   0.58286
 Alpha virt. eigenvalues --    0.58651   0.59218   0.60643   0.61078   0.62413
 Alpha virt. eigenvalues --    0.63259   0.65455   0.66059   0.66527   0.67959
 Alpha virt. eigenvalues --    0.69289   0.70699   0.71872   0.72831   0.73357
 Alpha virt. eigenvalues --    0.73912   0.74248   0.74878   0.76431   0.77379
 Alpha virt. eigenvalues --    0.78501   0.79666   0.82374   0.83824   0.85094
 Alpha virt. eigenvalues --    0.88479   0.92170   0.95017   0.99553   1.25436
 Alpha virt. eigenvalues --    1.25799   1.27347   1.28240   1.29552   1.31649
 Alpha virt. eigenvalues --    1.32654   1.32895   1.34142   1.35545   1.35919
 Alpha virt. eigenvalues --    1.36857   1.37312   1.38175   1.39361   1.39843
 Alpha virt. eigenvalues --    1.40175   1.40658   1.41394   1.41734   1.41936
 Alpha virt. eigenvalues --    1.43418   1.44219   1.44363   1.45516   1.47168
 Alpha virt. eigenvalues --    1.48102   1.49208   1.49806   1.50823   1.51268
 Alpha virt. eigenvalues --    1.52529   1.52640   1.53850   1.54613   1.57588
 Alpha virt. eigenvalues --    1.58298   1.60379   1.60911   1.61351   1.62383
 Alpha virt. eigenvalues --    1.62789   1.63551   1.64374   1.65502   1.66455
 Alpha virt. eigenvalues --    1.67223   1.67671   1.68153   1.68447   1.69164
 Alpha virt. eigenvalues --    1.69560   1.70558   1.71096   1.72333   1.72884
 Alpha virt. eigenvalues --    1.73353   1.75164   1.76241   1.77061   1.78685
 Alpha virt. eigenvalues --    1.80254   1.83518   1.84724   1.86065   1.86583
 Alpha virt. eigenvalues --    1.87157   1.87432   1.88240   1.89520   1.90817
 Alpha virt. eigenvalues --    1.91477   1.94424   1.95779   1.98182   1.99769
 Alpha virt. eigenvalues --    2.00982   2.03901   2.04638   2.06693   2.09652
 Alpha virt. eigenvalues --    2.11414   2.13244   2.14720   2.17187   2.19657
 Alpha virt. eigenvalues --    2.21335   2.21476   2.21959   2.23036   2.25812
 Alpha virt. eigenvalues --    2.26974   2.27979   2.29189   2.30898   2.31686
 Alpha virt. eigenvalues --    2.33842   2.34743   2.35802   2.36908   2.37758
 Alpha virt. eigenvalues --    2.39496   2.40662   2.41746   2.44625   2.44878
 Alpha virt. eigenvalues --    2.45629   2.47833   2.49603   2.50853   2.52187
 Alpha virt. eigenvalues --    2.52593   2.53324   2.54567   2.56850   2.58556
 Alpha virt. eigenvalues --    2.59444   2.60358   2.60993   2.61199   2.62732
 Alpha virt. eigenvalues --    2.64362   2.65548   2.66961   2.67633   2.69538
 Alpha virt. eigenvalues --    2.70853   2.71623   2.73260   2.73939   2.74216
 Alpha virt. eigenvalues --    2.76301   2.77194   2.77327   2.78197   2.79291
 Alpha virt. eigenvalues --    2.80758   2.81347   2.82443   2.83818   2.84583
 Alpha virt. eigenvalues --    2.85844   2.86019   2.87955   2.90487   2.92238
 Alpha virt. eigenvalues --    2.97559   2.99422   3.00905   3.04594   3.10345
 Alpha virt. eigenvalues --    3.11925   3.13632   3.16033   3.17531   3.18075
 Alpha virt. eigenvalues --    3.21098   3.22117   3.24988   3.25887   3.26743
 Alpha virt. eigenvalues --    3.26749   3.29406   3.33508   3.34650   3.36488
 Alpha virt. eigenvalues --    3.37227   3.39033   3.39909   3.40620   3.42008
 Alpha virt. eigenvalues --    3.42943   3.44982   3.45857   3.46032   3.47525
 Alpha virt. eigenvalues --    3.49327   3.50070   3.54835   3.57825   3.59278
 Alpha virt. eigenvalues --    3.59981   3.90111   3.99692   4.34229   4.34808
 Alpha virt. eigenvalues --   21.63208  21.78354  22.07814  22.10831  22.11352
 Alpha virt. eigenvalues --   22.13745  22.15541  22.17802  22.21347  22.25540
 Alpha virt. eigenvalues --   22.30911  31.93639  43.62595  43.64810
          Condensed to atoms (all electrons):
               1          2          3          4          5          6
     1  O    7.958853   0.000000  -0.000245   0.000017   0.015521   0.016606
     2  O    0.000000   8.007669   0.000342   0.000029  -0.202425   0.001039
     3  N   -0.000245   0.000342   6.375271   0.374256  -0.106654   0.339035
     4  H    0.000017   0.000029   0.374256   0.399175   0.015963  -0.044333
     5  C    0.015521  -0.202425  -0.106654   0.015963   6.961634  -0.060523
     6  C    0.016606   0.001039   0.339035  -0.044333  -0.060523   5.587572
     7  C   -0.000360  -0.025928   0.374419  -0.040806   0.377796  -0.087023
     8  C   -0.000188   0.706415   0.004450  -0.000676  -0.297260   0.030226
     9  C   -0.031524   0.017378   0.015762  -0.000145  -0.447196  -0.128103
    10  H    0.003528   0.000070   0.003608   0.000013  -0.026773  -0.013065
    11  H    0.017420  -0.000053  -0.001478   0.000013  -0.109143   0.024555
    12  C   -0.223198  -0.002219  -0.089910   0.015356   0.147813  -0.150988
    13  C    0.718216  -0.000029   0.000105   0.000348   0.070958   0.173283
    14  C   -0.000006  -0.024976  -0.037653  -0.006544  -0.058811   0.004306
    15  H   -0.000000   0.004410   0.004094   0.000526   0.013260   0.006096
    16  H   -0.000000   0.001099  -0.003764   0.000843  -0.005665  -0.001625
    17  H    0.000000   0.005151   0.002629   0.000757  -0.005549  -0.000657
    18  C   -0.000169  -0.107733  -0.000556   0.000017  -0.259071   0.000245
    19  H   -0.000004   0.008740   0.000003  -0.000001   0.024528   0.000025
    20  H    0.000018   0.000837   0.000016  -0.000001  -0.001726   0.000241
    21  H    0.000107   0.004124   0.000122   0.000001   0.049406  -0.001181
    22  C   -0.110227   0.000000   0.000066   0.000106   0.003421  -0.007501
    23  H    0.004595  -0.000000  -0.000080  -0.000050  -0.000496  -0.032705
    24  H    0.001395  -0.000000  -0.000023  -0.000017  -0.000096   0.010920
    25  H    0.008507   0.000000   0.000031  -0.000002  -0.000132  -0.001505
    26  C    0.000865   0.000003  -0.030378  -0.006718  -0.000546   0.179504
    27  H   -0.000195  -0.000000   0.002770   0.000903   0.000045  -0.045544
    28  H   -0.000042  -0.000000  -0.002412   0.000447   0.000406  -0.036198
    29  H    0.000025  -0.000000   0.000878   0.000902  -0.000471  -0.047804
               7          8          9         10         11         12
     1  O   -0.000360  -0.000188  -0.031524   0.003528   0.017420  -0.223198
     2  O   -0.025928   0.706415   0.017378   0.000070  -0.000053  -0.002219
     3  N    0.374419   0.004450   0.015762   0.003608  -0.001478  -0.089910
     4  H   -0.040806  -0.000676  -0.000145   0.000013   0.000013   0.015356
     5  C    0.377796  -0.297260  -0.447196  -0.026773  -0.109143   0.147813
     6  C   -0.087023   0.030226  -0.128103  -0.013065   0.024555  -0.150988
     7  C    5.406169  -0.193540  -0.160076  -0.005614   0.018665  -0.010173
     8  C   -0.193540   5.430164   0.084280  -0.003765  -0.008177  -0.034243
     9  C   -0.160076   0.084280   6.214229   0.395941   0.524347   0.034273
    10  H   -0.005614  -0.003765   0.395941   0.535298  -0.033398  -0.019764
    11  H    0.018665  -0.008177   0.524347  -0.033398   0.504468  -0.105944
    12  C   -0.010173  -0.034243   0.034273  -0.019764  -0.105944   7.245815
    13  C    0.013570  -0.006598  -0.266198   0.001064  -0.000329  -0.402989
    14  C    0.240215  -0.052338   0.011798  -0.001351   0.000472  -0.002818
    15  H   -0.066936   0.005777  -0.000416   0.000093  -0.000002  -0.000934
    16  H   -0.022393   0.001201   0.000111  -0.000061   0.000054   0.000673
    17  H   -0.035676  -0.011144   0.000069   0.000170  -0.000062  -0.000172
    18  C    0.003200   0.326582   0.003765  -0.009371   0.007564  -0.001443
    19  H    0.000495  -0.053162  -0.000297   0.000010   0.000491  -0.000229
    20  H    0.000710  -0.017901  -0.006640   0.000846  -0.002266  -0.003250
    21  H    0.001027  -0.075044  -0.011317   0.002027  -0.005376   0.006163
    22  C    0.000033  -0.000043   0.003193   0.001434   0.001229  -0.262573
    23  H    0.000002  -0.000009   0.003275  -0.000116  -0.000083   0.062473
    24  H    0.000022   0.000003  -0.001895   0.000134  -0.000118  -0.009892
    25  H    0.000009   0.000003   0.000251  -0.000037  -0.000147   0.025960
    26  C    0.002942   0.000442   0.019575  -0.000673   0.000007  -0.074286
    27  H   -0.000735   0.000001  -0.000962  -0.000060   0.000000  -0.005536
    28  H   -0.000895  -0.000010  -0.000168  -0.000024   0.000048  -0.019217
    29  H    0.003639  -0.000005  -0.000507   0.000082  -0.000007   0.022314
              13         14         15         16         17         18
     1  O    0.718216  -0.000006  -0.000000  -0.000000   0.000000  -0.000169
     2  O   -0.000029  -0.024976   0.004410   0.001099   0.005151  -0.107733
     3  N    0.000105  -0.037653   0.004094  -0.003764   0.002629  -0.000556
     4  H    0.000348  -0.006544   0.000526   0.000843   0.000757   0.000017
     5  C    0.070958  -0.058811   0.013260  -0.005665  -0.005549  -0.259071
     6  C    0.173283   0.004306   0.006096  -0.001625  -0.000657   0.000245
     7  C    0.013570   0.240215  -0.066936  -0.022393  -0.035676   0.003200
     8  C   -0.006598  -0.052338   0.005777   0.001201  -0.011144   0.326582
     9  C   -0.266198   0.011798  -0.000416   0.000111   0.000069   0.003765
    10  H    0.001064  -0.001351   0.000093  -0.000061   0.000170  -0.009371
    11  H   -0.000329   0.000472  -0.000002   0.000054  -0.000062   0.007564
    12  C   -0.402989  -0.002818  -0.000934   0.000673  -0.000172  -0.001443
    13  C    5.462029  -0.000060  -0.000012  -0.000026   0.000001   0.000361
    14  C   -0.000060   5.134481   0.384733   0.404080   0.425516   0.001272
    15  H   -0.000012   0.384733   0.567357  -0.025360  -0.028328   0.000260
    16  H   -0.000026   0.404080  -0.025360   0.512331  -0.026928  -0.000036
    17  H    0.000001   0.425516  -0.028328  -0.026928   0.509677  -0.000082
    18  C    0.000361   0.001272   0.000260  -0.000036  -0.000082   5.331740
    19  H   -0.000011   0.000065  -0.000005  -0.000017   0.000054   0.392434
    20  H   -0.000074  -0.000319  -0.000006   0.000002   0.000032   0.391543
    21  H    0.000606   0.000169  -0.000018   0.000002  -0.000064   0.387687
    22  C    0.292216  -0.000021   0.000002  -0.000000  -0.000000   0.000017
    23  H   -0.086597  -0.000001  -0.000000   0.000000   0.000000   0.000003
    24  H   -0.024621  -0.000001   0.000000   0.000000   0.000000  -0.000002
    25  H   -0.044593   0.000001  -0.000000  -0.000000  -0.000000  -0.000001
    26  C   -0.057041   0.001434  -0.000135  -0.000161   0.000051   0.000016
    27  H   -0.006340   0.000102  -0.000014   0.000002  -0.000001   0.000000
    28  H    0.006285  -0.000083   0.000006  -0.000017   0.000003  -0.000001
    29  H   -0.000196  -0.000272   0.000139   0.000002  -0.000002   0.000000
              19         20         21         22         23         24
     1  O   -0.000004   0.000018   0.000107  -0.110227   0.004595   0.001395
     2  O    0.008740   0.000837   0.004124   0.000000  -0.000000  -0.000000
     3  N    0.000003   0.000016   0.000122   0.000066  -0.000080  -0.000023
     4  H   -0.000001  -0.000001   0.000001   0.000106  -0.000050  -0.000017
     5  C    0.024528  -0.001726   0.049406   0.003421  -0.000496  -0.000096
     6  C    0.000025   0.000241  -0.001181  -0.007501  -0.032705   0.010920
     7  C    0.000495   0.000710   0.001027   0.000033   0.000002   0.000022
     8  C   -0.053162  -0.017901  -0.075044  -0.000043  -0.000009   0.000003
     9  C   -0.000297  -0.006640  -0.011317   0.003193   0.003275  -0.001895
    10  H    0.000010   0.000846   0.002027   0.001434  -0.000116   0.000134
    11  H    0.000491  -0.002266  -0.005376   0.001229  -0.000083  -0.000118
    12  C   -0.000229  -0.003250   0.006163  -0.262573   0.062473  -0.009892
    13  C   -0.000011  -0.000074   0.000606   0.292216  -0.086597  -0.024621
    14  C    0.000065  -0.000319   0.000169  -0.000021  -0.000001  -0.000001
    15  H   -0.000005  -0.000006  -0.000018   0.000002  -0.000000   0.000000
    16  H   -0.000017   0.000002   0.000002  -0.000000   0.000000   0.000000
    17  H    0.000054   0.000032  -0.000064  -0.000000   0.000000   0.000000
    18  C    0.392434   0.391543   0.387687   0.000017   0.000003  -0.000002
    19  H    0.510146  -0.010603  -0.023466  -0.000000   0.000000   0.000000
    20  H   -0.010603   0.499342  -0.023911  -0.000009  -0.000000   0.000000
    21  H   -0.023466  -0.023911   0.530974   0.000017  -0.000000  -0.000000
    22  C   -0.000000  -0.000009   0.000017   5.423637   0.397126   0.401948
    23  H    0.000000  -0.000000  -0.000000   0.397126   0.535224  -0.026416
    24  H    0.000000   0.000000  -0.000000   0.401948  -0.026416   0.492607
    25  H   -0.000000  -0.000000  -0.000000   0.382944  -0.021630  -0.008431
    26  C    0.000000   0.000005  -0.000014  -0.030072   0.015794  -0.015533
    27  H   -0.000000   0.000000  -0.000000   0.010276  -0.010291  -0.001242
    28  H    0.000000  -0.000000  -0.000000  -0.011578  -0.001348   0.001241
    29  H    0.000000  -0.000000   0.000000   0.001828   0.000724   0.000209
              25         26         27         28         29
     1  O    0.008507   0.000865  -0.000195  -0.000042   0.000025
     2  O    0.000000   0.000003  -0.000000  -0.000000  -0.000000
     3  N    0.000031  -0.030378   0.002770  -0.002412   0.000878
     4  H   -0.000002  -0.006718   0.000903   0.000447   0.000902
     5  C   -0.000132  -0.000546   0.000045   0.000406  -0.000471
     6  C   -0.001505   0.179504  -0.045544  -0.036198  -0.047804
     7  C    0.000009   0.002942  -0.000735  -0.000895   0.003639
     8  C    0.000003   0.000442   0.000001  -0.000010  -0.000005
     9  C    0.000251   0.019575  -0.000962  -0.000168  -0.000507
    10  H   -0.000037  -0.000673  -0.000060  -0.000024   0.000082
    11  H   -0.000147   0.000007   0.000000   0.000048  -0.000007
    12  C    0.025960  -0.074286  -0.005536  -0.019217   0.022314
    13  C   -0.044593  -0.057041  -0.006340   0.006285  -0.000196
    14  C    0.000001   0.001434   0.000102  -0.000083  -0.000272
    15  H   -0.000000  -0.000135  -0.000014   0.000006   0.000139
    16  H   -0.000000  -0.000161   0.000002  -0.000017   0.000002
    17  H   -0.000000   0.000051  -0.000001   0.000003  -0.000002
    18  C   -0.000001   0.000016   0.000000  -0.000001   0.000000
    19  H   -0.000000   0.000000  -0.000000   0.000000   0.000000
    20  H   -0.000000   0.000005   0.000000  -0.000000  -0.000000
    21  H   -0.000000  -0.000014  -0.000000  -0.000000   0.000000
    22  C    0.382944  -0.030072   0.010276  -0.011578   0.001828
    23  H   -0.021630   0.015794  -0.010291  -0.001348   0.000724
    24  H   -0.008431  -0.015533  -0.001242   0.001241   0.000209
    25  H    0.500233   0.002016   0.000882   0.000106  -0.000046
    26  C    0.002016   5.257598   0.424339   0.430744   0.390104
    27  H    0.000882   0.424339   0.514454  -0.026318  -0.026254
    28  H    0.000106   0.430744  -0.026318   0.479546  -0.017397
    29  H   -0.000046   0.390104  -0.026254  -0.017397   0.513175
 Mulliken charges:
               1
     1  O   -0.379516
     2  O   -0.393946
     3  N   -0.224704
     4  H    0.289621
     5  C   -0.098214
     6  C    0.285102
     7  C    0.207244
     8  C    0.164558
     9  C   -0.272805
    10  H    0.169754
    11  H    0.167248
    12  C   -0.141065
    13  C    0.156671
    14  C   -0.423389
    15  H    0.135414
    16  H    0.165651
    17  H    0.164557
    18  C   -0.468243
    19  H    0.150806
    20  H    0.173112
    21  H    0.157962
    22  C   -0.497468
    23  H    0.160609
    24  H    0.179808
    25  H    0.155581
    26  C   -0.509882
    27  H    0.169719
    28  H    0.196875
    29  H    0.158940
 Sum of Mulliken charges =  -0.00000
 Mulliken charges with hydrogens summed into heavy atoms:
               1
     1  O   -0.379516
     2  O   -0.393946
     3  N    0.064917
     5  C   -0.098214
     6  C    0.285102
     7  C    0.207244
     8  C    0.164558
     9  C    0.064197
    12  C   -0.141065
    13  C    0.156671
    14  C    0.042233
    18  C    0.013637
    22  C   -0.001470
    26  C    0.015652
 Electronic spatial extent (au):  <R**2>=           3190.3309
 Charge=             -0.0000 electrons
 Dipole moment (field-independent basis, Debye):
    X=             -4.1504    Y=              7.6196    Z=             -0.5354  Tot=              8.6931
 Quadrupole moment (field-independent basis, Debye-Ang):
   XX=            -99.4724   YY=            -78.4509   ZZ=            -84.8596
   XY=            -13.0509   XZ=             -5.5603   YZ=             -1.3237
 Traceless Quadrupole moment (field-independent basis, Debye-Ang):
   XX=            -11.8781   YY=              9.1434   ZZ=              2.7347
   XY=            -13.0509   XZ=             -5.5603   YZ=             -1.3237
 Octapole moment (field-independent basis, Debye-Ang**2):
  XXX=           -111.5988  YYY=             65.9702  ZZZ=              1.8682  XYY=             35.4747
  XXY=             31.4081  XXZ=            -11.9653  XZZ=             -2.9957  YZZ=             -0.9937
  YYZ=              2.1884  XYZ=              4.6389
 Hexadecapole moment (field-independent basis, Debye-Ang**3):
 XXXX=          -3066.4034 YYYY=          -1268.7633 ZZZZ=           -154.5926 XXXY=            -41.5362
 XXXZ=            -67.2656 YYYX=            -90.8745 YYYZ=            -21.7718 ZZZX=              2.5707
 ZZZY=              5.8525 XXYY=           -694.3426 XXZZ=           -489.9401 YYZZ=           -240.4098
 XXYZ=             -4.2047 YYXZ=             -5.7712 ZZXY=              0.8350
 N-N= 9.006023856664D+02 E-N=-3.277192975544D+03  KE= 6.306968241556D+02
 No NMR shielding tensors so no spin-rotation constants.
 Leave Link  601 at Sat Jan 24 23:43:01 2026, MaxMem=  2147483648 cpu:               1.8 elap:               0.1
 (Enter /data/home/wyx/g16/l9999.exe)
 1\1\GINC-CN015\SP\RCAM-B3LYP\TZVP\C11H15N1O2\WYX\24-Jan-2026\0\\#p CAM
 -B3LYP TZVP em=gd3bj scrf=(Solvent=Water,NonEquilibrium=Read) Geom=Che
 ck Guess=Read\\Title Card Required\\0,1\O,0,2.749979,-1.558588,0.72369
 9\O,0,-3.244534,-1.642441,-1.082119\N,0,-0.703553,1.5158,0.109569\H,0,
 -1.010013,2.472961,0.047375\C,0,-1.245679,-0.758895,-0.153988\C,0,0.64
 5308,1.300378,0.270669\C,0,-1.61571,0.54106,-0.231587\C,0,-2.152033,-1
 .828898,-0.535311\C,0,0.105987,-1.111751,0.421047\H,0,0.00446,-1.44512
 9,1.461992\H,0,0.532768,-1.96106,-0.108387\C,0,1.097655,0.027474,0.352
 242\C,0,2.494822,-0.386663,0.457875\C,0,-2.938772,1.07808,-0.661136\H,
 0,-3.090105,2.089157,-0.281005\H,0,-3.009641,1.113732,-1.749021\H,0,-3
 .763939,0.459725,-0.319289\C,0,-1.746545,-3.247606,-0.246257\H,0,-2.59
 8755,-3.919135,-0.327135\H,0,-0.990521,-3.582959,-0.960812\H,0,-1.3092
 71,-3.365095,0.745734\C,0,3.65222,0.549983,0.214947\H,0,3.477522,1.242
 081,-0.604457\H,0,3.864441,1.132729,1.112726\H,0,4.526694,-0.058477,-0
 .003015\C,0,1.42418,2.579019,0.328225\H,0,2.251997,2.53045,1.025222\H,
 0,1.815846,2.840622,-0.655711\H,0,0.775194,3.393445,0.64791\\Version=E
 S64L-G16RevA.03\State=1-A\HF=-633.3312331\RMSD=5.099e-09\Dipole=0.4641
 673,3.3758488,0.2923005\Quadrupole=-11.0420364,11.1980158,-0.1559793,2
 .4700158,-6.8262517,-0.0442195\PG=C01 [X(C11H15N1O2)]\\@


 THE SECRET OF SUCCESS IN LIFE IS TO EAT WHAT YOU LIKE, AND LET THE FOOD
 FIGHT IT OUT INSIDE YOU. -- FROM A FORTUNE COOKIE
 Job cpu time:       0 days  0 hours 11 minutes 49.1 seconds.
 Elapsed time:       0 days  0 hours  0 minutes 45.1 seconds.
 File lengths (MBytes):  RWF=    340 Int=      0 D2E=      0 Chk=     67 Scr=      1
 Normal termination of Gaussian 16 at Sat Jan 24 23:43:02 2026.
