 Entering Gaussian System, Link 0=g16
 Input=DDL-S2-cLR-13.gjf
 Output=DDL-S2-cLR-13.log
 Initial command:
 /data/home/wyx/g16/l1.exe "/scr/tmp/wyx/13119/Gau-1524300.inp" -scrdir="/scr/tmp/wyx/13119/"
 Entering Link 1 = /data/home/wyx/g16/l1.exe PID=   1524301.
  
 Copyright (c) 1988,1990,1992,1993,1995,1998,2003,2009,2016,
            Gaussian, Inc.  All Rights Reserved.
  
 This is part of the Gaussian(R) 16 program.  It is based on
 the Gaussian(R) 09 system (copyright 2009, Gaussian, Inc.),
 the Gaussian(R) 03 system (copyright 2003, Gaussian, Inc.),
 the Gaussian(R) 98 system (copyright 1998, Gaussian, Inc.),
 the Gaussian(R) 94 system (copyright 1995, Gaussian, Inc.),
 the Gaussian 92(TM) system (copyright 1992, Gaussian, Inc.),
 the Gaussian 90(TM) system (copyright 1990, Gaussian, Inc.),
 the Gaussian 88(TM) system (copyright 1988, Gaussian, Inc.),
 the Gaussian 86(TM) system (copyright 1986, Carnegie Mellon
 University), and the Gaussian 82(TM) system (copyright 1983,
 Carnegie Mellon University). Gaussian is a federally registered
 trademark of Gaussian, Inc.
  
 This software contains proprietary and confidential information,
 including trade secrets, belonging to Gaussian, Inc.
  
 This software is provided under written license and may be
 used, copied, transmitted, or stored only in accord with that
 written license.
  
 The following legend is applicable only to US Government
 contracts under FAR:
  
                    RESTRICTED RIGHTS LEGEND
  
 Use, reproduction and disclosure by the US Government is
 subject to restrictions as set forth in subparagraphs (a)
 and (c) of the Commercial Computer Software - Restricted
 Rights clause in FAR 52.227-19.
  
 Gaussian, Inc.
 340 Quinnipiac St., Bldg. 40, Wallingford CT 06492
  
  
 ---------------------------------------------------------------
 Warning -- This program may not be used in any manner that
 competes with the business of Gaussian, Inc. or will provide
 assistance to any competitor of Gaussian, Inc.  The licensee
 of this program is prohibited from giving any competitor of
 Gaussian, Inc. access to this program.  By using this program,
 the user acknowledges that Gaussian, Inc. is engaged in the
 business of creating and licensing software in the field of
 computational chemistry and represents and warrants to the
 licensee that it is not a competitor of Gaussian, Inc. and that
 it will not use this program in any manner prohibited above.
 ---------------------------------------------------------------
  

 Cite this work as:
 Gaussian 16, Revision A.03,
 M. J. Frisch, G. W. Trucks, H. B. Schlegel, G. E. Scuseria, 
 M. A. Robb, J. R. Cheeseman, G. Scalmani, V. Barone, 
 G. A. Petersson, H. Nakatsuji, X. Li, M. Caricato, A. V. Marenich, 
 J. Bloino, B. G. Janesko, R. Gomperts, B. Mennucci, H. P. Hratchian, 
 J. V. Ortiz, A. F. Izmaylov, J. L. Sonnenberg, D. Williams-Young, 
 F. Ding, F. Lipparini, F. Egidi, J. Goings, B. Peng, A. Petrone, 
 T. Henderson, D. Ranasinghe, V. G. Zakrzewski, J. Gao, N. Rega, 
 G. Zheng, W. Liang, M. Hada, M. Ehara, K. Toyota, R. Fukuda, 
 J. Hasegawa, M. Ishida, T. Nakajima, Y. Honda, O. Kitao, H. Nakai, 
 T. Vreven, K. Throssell, J. A. Montgomery, Jr., J. E. Peralta, 
 F. Ogliaro, M. J. Bearpark, J. J. Heyd, E. N. Brothers, K. N. Kudin, 
 V. N. Staroverov, T. A. Keith, R. Kobayashi, J. Normand, 
 K. Raghavachari, A. P. Rendell, J. C. Burant, S. S. Iyengar, 
 J. Tomasi, M. Cossi, J. M. Millam, M. Klene, C. Adamo, R. Cammi, 
 J. W. Ochterski, R. L. Martin, K. Morokuma, O. Farkas, 
 J. B. Foresman, and D. J. Fox, Gaussian, Inc., Wallingford CT, 2016.
 
 ******************************************
 Gaussian 16:  ES64L-G16RevA.03 25-Dec-2016
                24-Jan-2026 
 ******************************************
 %nprocshared=16
 Will use up to   16 processors via shared memory.
 %mem=16GB
 %oldchk=DDL-LR-13.chk
 %chk=DDL-S2-cLR-13.chk
 Copying data from "DDL-LR-13.chk" to current chk file "DDL-S2-cLR-13.chk"
 IOpt=  2 FromEx=T IUOpen= 4 IOptOp= 5 NList=   0 IFRang= 0 IUIn= 4 IUOut= 2.
 ----------------------------------------------------------------------
 #p CAM-B3LYP TZVP em=gd3bj td(nstates=6,root=2) scrf=(Solvent=Water,Co
 rrectedLR,NonEquilibrium=Save) Geom=Check Guess=Read
 ----------------------------------------------------------------------
 1/29=2,30=1,38=1,172=1/1;
 2/12=2,40=1/2;
 3/5=19,7=101,11=9,14=-4,25=1,30=1,70=9002201,71=1,72=1,74=-40,116=-2,124=41/1,2,3,8;
 4/5=1/1;
 5/5=2,38=6,53=1/2;
 8/6=1,10=1,107=2,108=6/1;
 9/8=2,15=1,41=6,42=1,70=2,73=22/14;
 10/5=4,13=10,28=2,74=20/2;
 6/7=2,8=2,9=2,10=2,22=-1/1;
 99/5=1,9=1/99;
 Leave Link    1 at Sat Jan 24 21:48:20 2026, MaxMem=  2147483648 cpu:               0.8 elap:               0.1
 (Enter /data/home/wyx/g16/l101.exe)
 -------------------
 Title Card Required
 -------------------
 Structure from the checkpoint file:  "DDL-S2-cLR-13.chk"
 Charge =  0 Multiplicity = 1
 Z-Matrix found in chk file.
 O,0,2.751427,-1.558562,0.719013
 O,0,-3.258428,-1.645069,-1.054801
 N,0,-0.699066,1.517043,0.093581
 H,0,-1.005316,2.474055,0.029032
 C,0,-1.244722,-0.759673,-0.155624
 C,0,0.647479,1.301933,0.260181
 C,0,-1.614499,0.540755,-0.236315
 C,0,-2.152913,-1.827403,-0.522681
 C,0,0.112483,-1.113209,0.404481
 H,0,0.019936,-1.45927,1.441882
 H,0,0.537635,-1.954435,-0.1395
 C,0,1.100768,0.02901,0.344807
 C,0,2.496203,-0.384727,0.459747
 C,0,-2.939123,1.076525,-0.657522
 H,0,-3.112635,2.068912,-0.238316
 H,0,-3.001956,1.158024,-1.743732
 H,0,-3.764526,0.439851,-0.350575
 C,0,-1.755626,-3.248584,-0.243533
 H,0,-2.615211,-3.91627,-0.260681
 H,0,-1.0514,-3.606649,-0.999397
 H,0,-1.259343,-3.370497,0.719669
 C,0,3.654785,0.554903,0.235611
 H,0,3.492126,1.246089,-0.587038
 H,0,3.851247,1.138957,1.136057
 H,0,4.533589,-0.052217,0.03197
 C,0,1.426143,2.580507,0.319808
 H,0,2.242352,2.537014,1.030873
 H,0,1.834675,2.834114,-0.659257
 H,0,0.773917,3.398872,0.622258
 Recover connectivity data from disk.
 ITRead=  0  0  0  0  0  0  0  0  0  0  0  0  0  0  0  0  0  0  0  0
 ITRead=  0  0  0  0  0  0  0  0  0
 MicOpt= -1 -1 -1 -1 -1 -1 -1 -1 -1 -1 -1 -1 -1 -1 -1 -1 -1 -1 -1 -1
 MicOpt= -1 -1 -1 -1 -1 -1 -1 -1 -1
 NAtoms=     29 NQM=       29 NQMF=       0 NMMI=      0 NMMIF=      0
                NMic=       0 NMicF=      0.
                    Isotopes and Nuclear Properties:
 (Nuclear quadrupole moments (NQMom) in fm**2, nuclear magnetic moments (NMagM)
  in nuclear magnetons)

  Atom         1           2           3           4           5           6           7           8           9          10
 IAtWgt=          16          16          14           1          12          12          12          12          12           1
 AtmWgt=  15.9949146  15.9949146  14.0030740   1.0078250  12.0000000  12.0000000  12.0000000  12.0000000  12.0000000   1.0078250
 NucSpn=           0           0           2           1           0           0           0           0           0           1
 AtZEff=   5.6000000   5.6000000   4.5500000   1.0000000   3.6000000   3.6000000   3.6000000   3.6000000   3.6000000   1.0000000
 NQMom=    0.0000000   0.0000000   2.0440000   0.0000000   0.0000000   0.0000000   0.0000000   0.0000000   0.0000000   0.0000000
 NMagM=    0.0000000   0.0000000   0.4037610   2.7928460   0.0000000   0.0000000   0.0000000   0.0000000   0.0000000   2.7928460
 AtZNuc=   8.0000000   8.0000000   7.0000000   1.0000000   6.0000000   6.0000000   6.0000000   6.0000000   6.0000000   1.0000000

  Atom        11          12          13          14          15          16          17          18          19          20
 IAtWgt=           1          12          12          12           1           1           1          12           1           1
 AtmWgt=   1.0078250  12.0000000  12.0000000  12.0000000   1.0078250   1.0078250   1.0078250  12.0000000   1.0078250   1.0078250
 NucSpn=           1           0           0           0           1           1           1           0           1           1
 AtZEff=   1.0000000   3.6000000   3.6000000   3.6000000   1.0000000   1.0000000   1.0000000   3.6000000   1.0000000   1.0000000
 NQMom=    0.0000000   0.0000000   0.0000000   0.0000000   0.0000000   0.0000000   0.0000000   0.0000000   0.0000000   0.0000000
 NMagM=    2.7928460   0.0000000   0.0000000   0.0000000   2.7928460   2.7928460   2.7928460   0.0000000   2.7928460   2.7928460
 AtZNuc=   1.0000000   6.0000000   6.0000000   6.0000000   1.0000000   1.0000000   1.0000000   6.0000000   1.0000000   1.0000000

  Atom        21          22          23          24          25          26          27          28          29
 IAtWgt=           1          12           1           1           1          12           1           1           1
 AtmWgt=   1.0078250  12.0000000   1.0078250   1.0078250   1.0078250  12.0000000   1.0078250   1.0078250   1.0078250
 NucSpn=           1           0           1           1           1           0           1           1           1
 AtZEff=   1.0000000   3.6000000   1.0000000   1.0000000   1.0000000   3.6000000   1.0000000   1.0000000   1.0000000
 NQMom=    0.0000000   0.0000000   0.0000000   0.0000000   0.0000000   0.0000000   0.0000000   0.0000000   0.0000000
 NMagM=    2.7928460   0.0000000   2.7928460   2.7928460   2.7928460   0.0000000   2.7928460   2.7928460   2.7928460
 AtZNuc=   1.0000000   6.0000000   1.0000000   1.0000000   1.0000000   6.0000000   1.0000000   1.0000000   1.0000000
 Leave Link  101 at Sat Jan 24 21:48:22 2026, MaxMem=  2147483648 cpu:               0.9 elap:               0.1
 (Enter /data/home/wyx/g16/l202.exe)
                          Input orientation:                          
 ---------------------------------------------------------------------
 Center     Atomic      Atomic             Coordinates (Angstroms)
 Number     Number       Type             X           Y           Z
 ---------------------------------------------------------------------
      1          8           0        2.751427   -1.558562    0.719013
      2          8           0       -3.258428   -1.645069   -1.054801
      3          7           0       -0.699066    1.517043    0.093581
      4          1           0       -1.005316    2.474055    0.029032
      5          6           0       -1.244722   -0.759673   -0.155624
      6          6           0        0.647479    1.301933    0.260181
      7          6           0       -1.614499    0.540755   -0.236315
      8          6           0       -2.152913   -1.827403   -0.522681
      9          6           0        0.112483   -1.113209    0.404481
     10          1           0        0.019936   -1.459270    1.441882
     11          1           0        0.537635   -1.954435   -0.139500
     12          6           0        1.100768    0.029010    0.344807
     13          6           0        2.496203   -0.384727    0.459747
     14          6           0       -2.939123    1.076525   -0.657522
     15          1           0       -3.112635    2.068912   -0.238316
     16          1           0       -3.001956    1.158024   -1.743732
     17          1           0       -3.764526    0.439851   -0.350575
     18          6           0       -1.755626   -3.248584   -0.243533
     19          1           0       -2.615211   -3.916270   -0.260681
     20          1           0       -1.051400   -3.606649   -0.999397
     21          1           0       -1.259343   -3.370497    0.719669
     22          6           0        3.654785    0.554903    0.235611
     23          1           0        3.492126    1.246089   -0.587038
     24          1           0        3.851247    1.138957    1.136057
     25          1           0        4.533589   -0.052217    0.031970
     26          6           0        1.426143    2.580507    0.319808
     27          1           0        2.242352    2.537014    1.030873
     28          1           0        1.834675    2.834114   -0.659257
     29          1           0        0.773917    3.398872    0.622258
 ---------------------------------------------------------------------
                    Distance matrix (angstroms):
                    1          2          3          4          5
     1  O    0.000000
     2  O    6.266758   0.000000
     3  N    4.664377   4.227064   0.000000
     4  H    5.554385   4.818546   1.006890   0.000000
     5  C    4.168024   2.376438   2.354417   3.247832   0.000000
     6  C    3.580441   5.066568   1.373758   2.039370   2.829052
     7  C    4.937721   2.854864   1.378400   2.044300   1.354385
     8  C    5.066224   1.240387   3.698482   4.485968   1.448996
     9  C    2.694679   3.711525   2.770108   3.776096   1.510202
    10  H    2.827268   4.124999   3.345642   4.303293   2.154257
    11  H    2.407205   3.917088   3.692549   4.692614   2.145813
    12  C    2.320580   4.874837   2.348778   3.242460   2.524634
    13  C    1.228921   6.082606   3.736382   4.540791   3.809696
    14  C    6.420350   2.768910   2.403345   2.482752   2.548435
    15  H    6.961485   3.805464   2.498005   2.162501   3.390698
    16  H    6.822490   2.897884   2.967813   2.976777   3.047543
    17  H    6.898936   2.258088   3.279430   3.448960   2.797548
    18  C    4.908788   2.342612   4.892971   5.778049   2.542327
    19  H    5.943012   2.490524   5.772175   6.596359   3.442874
    20  H    4.648557   2.953276   5.250806   6.167232   2.975668
    21  H    4.401066   3.181538   4.959228   5.890696   2.753680
    22  C    2.348716   7.368687   4.461155   5.044042   5.087862
    23  H    3.181269   7.358504   4.254733   4.702598   5.162066
    24  H    2.942811   7.943434   4.683487   5.156956   5.589466
    25  H    2.432531   8.027065   5.463245   6.087818   5.824480
    26  C    4.364360   6.456799   2.387184   2.451097   4.303064
    27  H    4.138859   7.217925   3.251276   3.399264   4.943238
    28  H    4.694216   6.794059   2.953182   2.944305   4.759374
    29  H    5.338170   6.671857   2.447541   2.091142   4.687590
                    6          7          8          9         10
     6  C    0.000000
     7  C    2.437713   0.000000
     8  C    4.271746   2.445418   0.000000
     9  C    2.477893   2.475618   2.549847   0.000000
    10  H    3.068301   3.080231   2.952338   1.097508   0.000000
    11  H    3.282643   3.296517   2.720664   1.088270   1.736079
    12  C    1.353871   2.823519   3.845159   1.511599   2.141670
    13  C    2.510464   4.270701   4.965960   2.493163   2.872478
    14  C    3.709003   1.489662   3.011496   3.903215   4.426487
    15  H    3.869782   2.140019   4.022835   4.576076   5.008406
    16  H    4.165904   2.139711   3.335358   4.412828   5.111770
    17  H    4.536739   2.155424   2.786998   4.244208   4.598012
    18  C    5.170672   3.791973   1.501838   2.910254   3.032307
    19  H    6.176252   4.568051   2.155395   3.967355   3.984918
    20  H    5.344802   4.254449   2.146231   3.089133   3.423279
    21  H    5.067416   4.042021   2.173256   2.660188   2.410588
    22  C    3.098798   5.290394   6.322954   3.919058   4.327136
    23  H    2.968655   5.167023   6.427827   4.239267   4.846812
    24  H    3.325334   5.667065   6.899322   4.425586   4.639316
    25  H    4.121608   6.182441   6.940334   4.561869   4.933631
    26  C    1.498207   3.703426   5.740131   3.921277   4.422247
    27  H    2.159401   4.523949   6.385924   4.272334   4.591116
    28  H    2.145316   4.163553   6.135899   4.436084   5.112847
    29  H    2.131722   3.822370   6.098456   4.565501   4.984156
                   11         12         13         14         15
    11  H    0.000000
    12  C    2.117953   0.000000
    13  C    2.580517   1.460010   0.000000
    14  C    4.641434   4.292164   5.738146   0.000000
    15  H    5.433374   4.717414   6.161712   1.091179   0.000000
    16  H    4.978922   4.740149   6.120878   1.091074   1.763021
    17  H    4.928057   4.931879   6.366575   1.086674   1.758239
    18  C    2.635278   4.387226   5.174392   4.503179   5.487920
    19  H    3.715363   5.453471   6.254388   5.019004   6.005858
    20  H    2.448319   4.433591   5.009528   5.060879   6.086044
    21  H    2.443877   4.155393   4.804842   4.949174   5.825770
    22  C    4.019218   2.609883   1.508461   6.674534   6.950885
    23  H    4.378660   2.840459   2.178803   6.433870   6.664947
    24  H    4.709155   3.069722   2.148291   7.023528   7.158867
    25  H    4.428937   3.448003   2.108198   7.588866   7.939583
    26  C    4.643933   2.572281   3.155507   4.719394   4.601493
    27  H    4.944588   2.839716   2.987841   5.641931   5.523210
    28  H    4.988252   3.068448   3.471416   5.087069   5.023804
    29  H    5.412393   3.397025   4.160325   4.562653   4.196983
                   16         17         18         19         20
    16  H    0.000000
    17  H    1.743035   0.000000
    18  C    4.818934   4.201391   0.000000
    19  H    5.300705   4.506084   1.088570   0.000000
    20  H    5.202001   4.914894   1.093378   1.757006   0.000000
    21  H    5.441741   4.684028   1.090375   1.759924   1.747626
    22  C    6.970922   7.443321   6.630885   7.716900   6.402495
    23  H    6.596878   7.305131   6.918019   8.003501   6.660536
    24  H    7.433703   7.790945   7.251952   8.325940   7.149608
    25  H    7.835958   8.321489   7.060233   8.131537   6.699986
    26  C    5.088194   5.654632   6.664781   7.673175   6.794072
    27  H    6.091208   6.510689   7.147103   8.179786   7.260537
    28  H    5.232434   6.097445   7.075472   8.094939   7.066014
    29  H    4.987637   5.504514   7.164974   8.110307   7.418819
                   21         22         23         24         25
    21  H    0.000000
    22  C    6.308069   0.000000
    23  H    6.752541   1.086714   0.000000
    24  H    6.828373   1.091109   1.763378   0.000000
    25  H    6.711332   1.087364   1.775786   1.761674   0.000000
    26  C    6.541114   3.012807   2.621322   2.936913   4.082929
    27  H    6.874402   2.560502   2.417862   2.134050   3.598846
    28  H    7.069058   3.050966   2.296559   3.187989   4.011588
    29  H    7.068804   4.066578   3.672265   3.852423   5.137469
                   26         27         28         29
    26  C    0.000000
    27  H    1.083375   0.000000
    28  H    1.090772   1.763805   0.000000
    29  H    1.089310   1.751019   1.756827   0.000000
 Stoichiometry    C11H15NO2
 Framework group  C1[X(C11H15NO2)]
 Deg. of freedom    81
 Full point group                 C1      NOp   1
 RotChk:  IX=0 Diff= 4.89D-16
 Largest Abelian subgroup         C1      NOp   1
 Largest concise Abelian subgroup C1      NOp   1
                         Standard orientation:                         
 ---------------------------------------------------------------------
 Center     Atomic      Atomic             Coordinates (Angstroms)
 Number     Number       Type             X           Y           Z
 ---------------------------------------------------------------------
      1          8           0       -2.280155   -2.289459   -0.152831
      2          8           0        3.611445   -0.232782    0.422830
      3          7           0       -0.037249    1.799550   -0.228880
      4          1           0       -0.070525    2.805887   -0.231368
      5          6           0        1.289588   -0.139279   -0.074861
      6          6           0       -1.235562    1.135136   -0.129832
      7          6           0        1.200342    1.212162   -0.076140
      8          6           0        2.558463   -0.812319    0.116354
      9          6           0        0.057997   -0.965867   -0.358845
     10          1           0        0.075086   -1.335333   -1.392154
     11          1           0        0.051485   -1.859030    0.262885
     12          6           0       -1.233455   -0.218667   -0.116409
     13          6           0       -2.399625   -1.082323    0.044133
     14          6           0        2.314562    2.189022    0.076674
     15          1           0        2.059731    3.149139   -0.374887
     16          1           0        2.540054    2.365379    1.129525
     17          1           0        3.238382    1.844472   -0.380166
     18          6           0        2.627936   -2.300815   -0.070908
     19          1           0        3.652196   -2.639575   -0.216227
     20          1           0        2.236889   -2.817912    0.809528
     21          1           0        2.038627   -2.651147   -0.918788
     22          6           0       -3.749259   -0.570498    0.482284
     23          1           0       -3.687656    0.193020    1.253123
     24          1           0       -4.292227   -0.152669   -0.366906
     25          1           0       -4.315480   -1.420035    0.856506
     26          6           0       -2.401784    2.071896   -0.045985
     27          1           0       -3.267622    1.706573   -0.585025
     28          1           0       -2.689177    2.244610    0.991974
     29          1           0       -2.134569    3.037013   -0.474638
 ---------------------------------------------------------------------
 Rotational constants (GHZ):           1.0864139           0.4884015           0.3453737
 Leave Link  202 at Sat Jan 24 21:48:22 2026, MaxMem=  2147483648 cpu:               0.0 elap:               0.0
 (Enter /data/home/wyx/g16/l301.exe)
 Standard basis: TZVP (5D, 7F)
 Ernie: Thresh=  0.10000D-02 Tol=  0.10000D-05 Strict=F.
 There are   370 symmetry adapted cartesian basis functions of A   symmetry.
 There are   356 symmetry adapted basis functions of A   symmetry.
   356 basis functions,   610 primitive gaussians,   370 cartesian basis functions
    52 alpha electrons       52 beta electrons
       nuclear repulsion energy       900.5158012683 Hartrees.
 IExCor=20419 DFT=T Ex+Corr=CAM-B3LYP ExCW=0 ScaHFX=  1.000000
 ScaDFX=  1.000000  1.000000  1.000000  0.810000 ScalE2=  1.000000  1.000000
 IRadAn=      5 IRanWt=     -1 IRanGd=            0 ICorTp=0 IEmpDi=141
 HFx  wShort=  0.000000 wLong=  0.330000 cFull=  0.190000 cShort=  0.000000 cLong=  0.460000
 DFx  wShort=  0.000000 wLong=  0.330000 cFull=  0.190000 cShort=  0.000000 cLong=  0.460000
 NAtoms=   29 NActive=   29 NUniq=   29 SFac= 1.00D+00 NAtFMM=   60 NAOKFM=F Big=F
 Integral buffers will be    131072 words long.
 Raffenetti 1 integral format.
 Two-electron integral symmetry is turned on.
 R6Disp:  Grimme-D3(BJ) Dispersion energy=       -0.0261834868 Hartrees.
 Nuclear repulsion after empirical dispersion term =      900.4896177815 Hartrees.
 ------------------------------------------------------------------------------
 Polarizable Continuum Model (PCM)
 =================================
 Model                : PCM.
 Atomic radii         : UFF (Universal Force Field).
 Polarization charges : Total charges.
 Charge compensation  : None.
 Solution method      : On-the-fly selection.
 Cavity type          : Scaled VdW (van der Waals Surface) (Alpha=1.100).
 Cavity algorithm     : GePol (No added spheres)
                        Default sphere list used, NSphG=   29.
                        Lebedev-Laikov grids with approx.  5.0 points / Ang**2.
                        Smoothing algorithm: York/Karplus (Gamma=1.0000).
                        Polarization charges: spherical gaussians, with
                                              point-specific exponents (IZeta= 3).
                        Self-potential: point-specific (ISelfS= 7).
                        Self-field    : sphere-specific E.n sum rule (ISelfD= 2).
 1st derivatives      : Analytical E(r).r(x)/FMM algorithm (CHGder, D1EAlg=3).
                        Cavity 1st derivative terms included.
 Solvent              : Water, Eps=  78.355300 Eps(inf)=   1.777849
 ------------------------------------------------------------------------------
 GePol: Number of generator spheres                  =      29
 GePol: Total number of spheres                      =      29
 GePol: Number of exposed spheres                    =      29 (100.00%)
 GePol: Number of points                             =    2108
 GePol: Average weight of points                     =       0.13
 GePol: Minimum weight of points                     =   0.20D-08
 GePol: Maximum weight of points                     =    0.20577
 GePol: Number of points with low weight             =     140
 GePol: Fraction of low-weight points (<1% of avg)   =       6.64%
 GePol: Cavity surface area                          =    268.438 Ang**2
 GePol: Cavity volume                                =    286.035 Ang**3
 Leave Link  301 at Sat Jan 24 21:48:23 2026, MaxMem=  2147483648 cpu:               0.6 elap:               0.0
 (Enter /data/home/wyx/g16/l302.exe)
 NPDir=0 NMtPBC=     1 NCelOv=     1 NCel=       1 NClECP=     1 NCelD=      1
         NCelK=      1 NCelE2=     1 NClLst=     1 CellRange=     0.0.
 One-electron integrals computed using PRISM.
 One-electron integral symmetry used in STVInt
 NBasis=   356 RedAO= T EigKep=  4.50D-05  NBF=   356
 NBsUse=   356 1.00D-06 EigRej= -1.00D+00 NBFU=   356
 Precomputing XC quadrature grid using
 IXCGrd= 4 IRadAn=           5 IRanWt=          -1 IRanGd=           0 AccXCQ= 0.00D+00.
 Generated NRdTot=       0 NPtTot=           0 NUsed=           0 NTot=          32
 NSgBfM=   366   366   366   366   366 MxSgAt=    29 MxSgA2=    29.
 Leave Link  302 at Sat Jan 24 21:48:23 2026, MaxMem=  2147483648 cpu:               3.1 elap:               0.2
 (Enter /data/home/wyx/g16/l303.exe)
 DipDrv:  MaxL=1.
 Leave Link  303 at Sat Jan 24 21:48:23 2026, MaxMem=  2147483648 cpu:               0.6 elap:               0.0
 (Enter /data/home/wyx/g16/l308.exe)
 Leave Link  308 at Sat Jan 24 21:48:23 2026, MaxMem=  2147483648 cpu:               0.7 elap:               0.1
 (Enter /data/home/wyx/g16/l401.exe)
 Initial guess from the checkpoint file:  "DDL-S2-cLR-13.chk"
 B after Tr=    -0.000000   -0.000000    0.000000
         Rot=    1.000000    0.000000   -0.000000   -0.000000 Ang=   0.00 deg.
 Guess basis will be translated and rotated to current coordinates.
 JPrj=2 DoOrth=T DoCkMO=T.
 Leave Link  401 at Sat Jan 24 21:48:24 2026, MaxMem=  2147483648 cpu:               2.2 elap:               0.2
 (Enter /data/home/wyx/g16/l502.exe)
 Integral symmetry usage will be decided dynamically.
 Closed shell SCF:
 Using DIIS extrapolation, IDIIS=  1040.
 NGot=  2147483648 LenX=  2147200095 LenY=  2147062754
 Requested convergence on RMS density matrix=1.00D-08 within 128 cycles.
 Requested convergence on MAX density matrix=1.00D-06.
 Requested convergence on             energy=1.00D-06.
 No special actions if energy rises.
 Fock matrices will be formed incrementally for  20 cycles.

 Cycle   1  Pass 1  IDiag  1:
 FoFJK:  IHMeth= 1 ICntrl=       0 DoSepK=T KAlg= 0 I1Cent=           0 FoldK=F
 IRaf=         1 NMat=       1 IRICut=       1 DoRegI=T DoRafI=F ISym2E= 0 IDoP0=0 IntGTp=1.
 FoFCou: FMM=F IPFlag=           0 FMFlag=      100000 FMFlg1=           0
         NFxFlg=           0 DoJE=T BraDBF=F KetDBF=F FulRan=T
         wScrn=  0.000000 ICntrl=       500 IOpCl=  0 I1Cent=           0 NGrid=           0
         NMat0=    1 NMatS0=      1 NMatT0=    0 NMatD0=    1 NMtDS0=    0 NMtDT0=    0
 Symmetry not used in FoFCou.
 Inv3:  Mode=1 IEnd=    13330992.
 Iteration    1 A*A^-1 deviation from unit magnitude is 4.11D-15 for    669.
 Iteration    1 A*A^-1 deviation from orthogonality  is 2.31D-15 for   1781    161.
 Iteration    1 A^-1*A deviation from unit magnitude is 3.66D-15 for    669.
 Iteration    1 A^-1*A deviation from orthogonality  is 2.66D-15 for   1933     66.
 E= -633.331048473735    
 DIIS: error= 1.67D-08 at cycle   1 NSaved=   1.
 NSaved= 1 IEnMin= 1 EnMin= -633.331048473735     IErMin= 1 ErrMin= 1.67D-08
 ErrMax= 1.67D-08  0.00D+00 EMaxC= 1.00D-01 BMatC= 7.60D-14 BMatP= 7.60D-14
 IDIUse=1 WtCom= 1.00D+00 WtEn= 0.00D+00
 Coeff-Com:  0.100D+01
 Coeff:      0.100D+01
 Gap=     0.238 Goal=   None    Shift=    0.000
 RMSDP=3.37D-09 MaxDP=7.44D-08              OVMax= 3.77D-07

 Error on total polarization charges =  0.01549
 SCF Done:  E(RCAM-B3LYP) =  -633.331048474     A.U. after    1 cycles
            NFock=  1  Conv=0.34D-08     -V/T= 2.0042
 KE= 6.306977423342D+02 PE=-3.277036020215D+03 EE= 1.112517611626D+03
 Leave Link  502 at Sat Jan 24 21:48:29 2026, MaxMem=  2147483648 cpu:              85.8 elap:               5.7
 (Enter /data/home/wyx/g16/l801.exe)
 DoSCS=F DFT=T ScalE2(SS,OS)=  1.000000  1.000000
 ExpMin= 9.52D-02 ExpMax= 2.70D+04 ExpMxC= 9.22D+02 IAcc=3 IRadAn=         5 AccDes= 0.00D+00
 HarFok:  IExCor=  205 AccDes= 0.00D+00 IRadAn=         5 IDoV=-2 UseB2=F ITyADJ=14
 ICtDFT= 12500011 ScaDFX=  1.000000  1.000000  1.000000  1.000000
 Largest valence mixing into a core orbital is  5.64D-05
 Largest core mixing into a valence orbital is  1.19D-05
 Range of M.O.s used for correlation:    15   356
 NBasis=   356 NAE=    52 NBE=    52 NFC=    14 NFV=     0
 NROrb=    342 NOA=    38 NOB=    38 NVA=   304 NVB=   304

 **** Warning!!: The largest alpha MO coefficient is  0.55292087D+02

 Leave Link  801 at Sat Jan 24 21:48:30 2026, MaxMem=  2147483648 cpu:               1.0 elap:               0.1
 (Enter /data/home/wyx/g16/l914.exe)
 RHF ground state
 Two-electron integrals replicated using symmetry.
 MDV=  2147483648 DFT=T DoStab=F Mixed=T DoRPA=T DoScal=F NonHer=T
 NEqPCM:  Using equilibrium solvation (IEInf=0, Eps=  78.3553, EpsInf=   1.7778)
 Making orbital integer symmetry assigments:
 Orbital symmetries:
       Occupied  (A) (A) (A) (A) (A) (A) (A) (A) (A) (A) (A) (A)
                 (A) (A) (A) (A) (A) (A) (A) (A) (A) (A) (A) (A)
                 (A) (A) (A) (A) (A) (A) (A) (A) (A) (A) (A) (A)
                 (A) (A) (A) (A) (A) (A) (A) (A) (A) (A) (A) (A)
                 (A) (A) (A) (A)
       Virtual   (A) (A) (A) (A) (A) (A) (A) (A) (A) (A) (A) (A)
                 (A) (A) (A) (A) (A) (A) (A) (A) (A) (A) (A) (A)
                 (A) (A) (A) (A) (A) (A) (A) (A) (A) (A) (A) (A)
                 (A) (A) (A) (A) (A) (A) (A) (A) (A) (A) (A) (A)
                 (A) (A) (A) (A) (A) (A) (A) (A) (A) (A) (A) (A)
                 (A) (A) (A) (A) (A) (A) (A) (A) (A) (A) (A) (A)
                 (A) (A) (A) (A) (A) (A) (A) (A) (A) (A) (A) (A)
                 (A) (A) (A) (A) (A) (A) (A) (A) (A) (A) (A) (A)
                 (A) (A) (A) (A) (A) (A) (A) (A) (A) (A) (A) (A)
                 (A) (A) (A) (A) (A) (A) (A) (A) (A) (A) (A) (A)
                 (A) (A) (A) (A) (A) (A) (A) (A) (A) (A) (A) (A)
                 (A) (A) (A) (A) (A) (A) (A) (A) (A) (A) (A) (A)
                 (A) (A) (A) (A) (A) (A) (A) (A) (A) (A) (A) (A)
                 (A) (A) (A) (A) (A) (A) (A) (A) (A) (A) (A) (A)
                 (A) (A) (A) (A) (A) (A) (A) (A) (A) (A) (A) (A)
                 (A) (A) (A) (A) (A) (A) (A) (A) (A) (A) (A) (A)
                 (A) (A) (A) (A) (A) (A) (A) (A) (A) (A) (A) (A)
                 (A) (A) (A) (A) (A) (A) (A) (A) (A) (A) (A) (A)
                 (A) (A) (A) (A) (A) (A) (A) (A) (A) (A) (A) (A)
                 (A) (A) (A) (A) (A) (A) (A) (A) (A) (A) (A) (A)
                 (A) (A) (A) (A) (A) (A) (A) (A) (A) (A) (A) (A)
                 (A) (A) (A) (A) (A) (A) (A) (A) (A) (A) (A) (A)
                 (A) (A) (A) (A) (A) (A) (A) (A) (A) (A) (A) (A)
                 (A) (A) (A) (A) (A) (A) (A) (A) (A) (A) (A) (A)
                 (A) (A) (A) (A) (A) (A) (A) (A) (A) (A) (A) (A)
                 (A) (A) (A) (A)
 PCM Corrected Linear-Response:
 Compute the excitation energies in the ground state reaction field.
    24 initial guesses have been made.
 Convergence on wavefunction:    0.000001000000000
 Davidson Disk Diagonalization:  ConvIn= 1.00D-06 SkipCon=T Conv= 1.00D-06.
 Max sub-space:  2000 roots to seek:    24 dimension of matrix:        23104
 Iteration     1 Dimension    24 NMult     0 NNew     24
 CISAX will form    24 AO SS matrices at one time.
 NMat=    24 NSing=    24 JSym2X= 0.
 FoFJK:  IHMeth= 1 ICntrl=       0 DoSepK=T KAlg= 0 I1Cent=           0 FoldK=F
 IRaf=         1 NMat=      48 IRICut=       1 DoRegI=T DoRafI=F ISym2E= 0 IDoP0=3 IntGTp=3.
 FoFCou: FMM=F IPFlag=           0 FMFlag=      100000 FMFlg1=           0
         NFxFlg=           0 DoJE=F BraDBF=F KetDBF=F FulRan=T
         wScrn=  0.000000 ICntrl=       500 IOpCl=  0 I1Cent=           0 NGrid=           0
         NMat0=   24 NMatS0=     24 NMatT0=    0 NMatD0=   24 NMtDS0=    0 NMtDT0=    0
 Symmetry not used in FoFCou.
 New state      2 was old state      3
 New state      3 was old state      4
 New state      4 was old state      2
 New state      5 was old state      6
 New state      6 was old state      5
 Excitation Energies [eV] at current iteration:
 Root      1 :     4.011040953178270
 Root      2 :     4.263013498963907
 Root      3 :     4.550465076306949
 Root      4 :     5.563768469066694
 Root      5 :     6.307858869003470
 Root      6 :     6.603545935902075
 Root      7 :     6.824011414715815
 Root      8 :     6.912229363617080
 Root      9 :     6.961903899947555
 Root     10 :     7.191281444268749
 Root     11 :     7.296730605696167
 Root     12 :     7.509381981421040
 Root     13 :     7.604354263618215
 Root     14 :     7.690112665592857
 Root     15 :     7.835368757704487
 Root     16 :     8.095229446085108
 Root     17 :     8.207691816204242
 Root     18 :     8.321557445322078
 Root     19 :     8.374421259002940
 Root     20 :     8.709584755827654
 Root     21 :     8.856234422390912
 Root     22 :     8.977556049938007
 Root     23 :     9.084486978708139
 Root     24 :     9.262181448809976
 Iteration     2 Dimension    36 NMult    24 NNew     12
 CISAX will form    12 AO SS matrices at one time.
 NMat=    12 NSing=    12 JSym2X= 0.
 Root      1 not converged, maximum delta is    0.111352265825553
 Root      2 not converged, maximum delta is    0.108124214687069
 Root      3 not converged, maximum delta is    0.090552723472615
 Root      4 not converged, maximum delta is    0.226952100056380
 New state      5 was old state      6
 Root      5 not converged, maximum delta is    0.258327784637140
 New state      6 was old state      5
 Root      6 not converged, maximum delta is    0.154038229904344
 Excitation Energies [eV] at current iteration:
 Root      1 :     3.564879735391790   Change is   -0.446161217786481
 Root      2 :     4.014596308297624   Change is   -0.248417190666283
 Root      3 :     4.284531650870428   Change is   -0.265933425436522
 Root      4 :     5.245069593938376   Change is   -0.318698875128319
 Root      5 :     5.721747494002368   Change is   -0.881798441899707
 Root      6 :     6.176563928720800   Change is   -0.131294940282670
 Iteration     3 Dimension    48 NMult    36 NNew     12
 CISAX will form    12 AO SS matrices at one time.
 NMat=    12 NSing=    12 JSym2X= 0.
 Root      1 not converged, maximum delta is    0.010543158422158
 Root      2 not converged, maximum delta is    0.010093814535454
 Root      3 not converged, maximum delta is    0.014585300827824
 Root      4 not converged, maximum delta is    0.024294759688120
 Root      5 not converged, maximum delta is    0.024989364120379
 Root      6 not converged, maximum delta is    0.019172144104574
 Excitation Energies [eV] at current iteration:
 Root      1 :     3.544540423184936   Change is   -0.020339312206854
 Root      2 :     4.001675319577933   Change is   -0.012920988719692
 Root      3 :     4.270544874601437   Change is   -0.013986776268991
 Root      4 :     5.223149383399497   Change is   -0.021920210538878
 Root      5 :     5.686283889360805   Change is   -0.035463604641562
 Root      6 :     6.165237078979343   Change is   -0.011326849741456
 Iteration     4 Dimension    60 NMult    48 NNew     12
 CISAX will form    12 AO SS matrices at one time.
 NMat=    12 NSing=    12 JSym2X= 0.
 Root      1 not converged, maximum delta is    0.002128269914425
 Root      2 not converged, maximum delta is    0.001966265215637
 Root      3 not converged, maximum delta is    0.002175338664852
 Root      4 not converged, maximum delta is    0.002257045022521
 Root      5 not converged, maximum delta is    0.003533056529087
 Root      6 not converged, maximum delta is    0.003715827833052
 Excitation Energies [eV] at current iteration:
 Root      1 :     3.542867369815900   Change is   -0.001673053369036
 Root      2 :     4.000697009331600   Change is   -0.000978310246333
 Root      3 :     4.269784539289738   Change is   -0.000760335311700
 Root      4 :     5.221224937246467   Change is   -0.001924446153030
 Root      5 :     5.682889133961996   Change is   -0.003394755398809
 Root      6 :     6.164402299130096   Change is   -0.000834779849248
 Iteration     5 Dimension    72 NMult    60 NNew     12
 CISAX will form    12 AO SS matrices at one time.
 NMat=    12 NSing=    12 JSym2X= 0.
 Root      1 not converged, maximum delta is    0.000862061340149
 Root      2 not converged, maximum delta is    0.000280532156837
 Root      3 not converged, maximum delta is    0.000596859364735
 Root      4 not converged, maximum delta is    0.000767183191640
 Root      5 not converged, maximum delta is    0.001181180580365
 Root      6 not converged, maximum delta is    0.001139801541292
 Excitation Energies [eV] at current iteration:
 Root      1 :     3.542758400487026   Change is   -0.000108969328874
 Root      2 :     4.000647587318998   Change is   -0.000049422012602
 Root      3 :     4.269738382996516   Change is   -0.000046156293222
 Root      4 :     5.221061122617603   Change is   -0.000163814628864
 Root      5 :     5.682549314020086   Change is   -0.000339819941910
 Root      6 :     6.164332418542153   Change is   -0.000069880587943
 Iteration     6 Dimension    84 NMult    72 NNew     12
 CISAX will form    12 AO SS matrices at one time.
 NMat=    12 NSing=    12 JSym2X= 0.
 Root      1 not converged, maximum delta is    0.000200661904960
 Root      2 not converged, maximum delta is    0.000076759680431
 Root      3 not converged, maximum delta is    0.000187956792536
 Root      4 not converged, maximum delta is    0.000490086383044
 Root      5 not converged, maximum delta is    0.000266397173451
 Root      6 not converged, maximum delta is    0.000257355118746
 Excitation Energies [eV] at current iteration:
 Root      1 :     3.542752875148230   Change is   -0.000005525338796
 Root      2 :     4.000643942265060   Change is   -0.000003645053938
 Root      3 :     4.269735217140704   Change is   -0.000003165855811
 Root      4 :     5.221045367399507   Change is   -0.000015755218096
 Root      5 :     5.682521761697710   Change is   -0.000027552322376
 Root      6 :     6.164326454052594   Change is   -0.000005964489560
 Iteration     7 Dimension    96 NMult    84 NNew     12
 CISAX will form    12 AO SS matrices at one time.
 NMat=    12 NSing=    12 JSym2X= 0.
 Root      1 not converged, maximum delta is    0.000017670962868
 Root      2 not converged, maximum delta is    0.000015574618366
 Root      3 not converged, maximum delta is    0.000051474018455
 Root      4 not converged, maximum delta is    0.000178290799030
 Root      5 not converged, maximum delta is    0.000097056825454
 Root      6 not converged, maximum delta is    0.000157184998070
 Excitation Energies [eV] at current iteration:
 Root      1 :     3.542752530315676   Change is   -0.000000344832554
 Root      2 :     4.000643744530307   Change is   -0.000000197734752
 Root      3 :     4.269734991291905   Change is   -0.000000225848799
 Root      4 :     5.221043933791750   Change is   -0.000001433607757
 Root      5 :     5.682519729069017   Change is   -0.000002032628694
 Root      6 :     6.164325747002417   Change is   -0.000000707050177
 Iteration     8 Dimension   108 NMult    96 NNew     12
 CISAX will form    12 AO SS matrices at one time.
 NMat=    12 NSing=    12 JSym2X= 0.
 Root      1 not converged, maximum delta is    0.000005293957888
 Root      2 not converged, maximum delta is    0.000003476017407
 Root      3 not converged, maximum delta is    0.000006455587072
 Root      4 not converged, maximum delta is    0.000027973330336
 Root      5 not converged, maximum delta is    0.000021525258131
 Root      6 not converged, maximum delta is    0.000040781781725
 Excitation Energies [eV] at current iteration:
 Root      1 :     3.542752515769406   Change is   -0.000000014546271
 Root      2 :     4.000643734726707   Change is   -0.000000009803600
 Root      3 :     4.269734981356288   Change is   -0.000000009935616
 Root      4 :     5.221043836413617   Change is   -0.000000097378133
 Root      5 :     5.682519582940074   Change is   -0.000000146128942
 Root      6 :     6.164325681573599   Change is   -0.000000065428817
 Iteration     9 Dimension   120 NMult   108 NNew     12
 CISAX will form    12 AO SS matrices at one time.
 NMat=    12 NSing=    12 JSym2X= 0.
 Root      1 not converged, maximum delta is    0.000001077604336
 Root      2 has converged.
 Root      3 not converged, maximum delta is    0.000001309916044
 Root      4 not converged, maximum delta is    0.000002454529190
 Root      5 not converged, maximum delta is    0.000005392941491
 Root      6 not converged, maximum delta is    0.000006458044815
 Excitation Energies [eV] at current iteration:
 Root      1 :     3.542752515127966   Change is   -0.000000000641440
 Root      2 :     4.000643734410464   Change is   -0.000000000316243
 Root      3 :     4.269734981003390   Change is   -0.000000000352898
 Root      4 :     5.221043832219746   Change is   -0.000000004193871
 Root      5 :     5.682519575088673   Change is   -0.000000007851402
 Root      6 :     6.164325677595574   Change is   -0.000000003978025
 Iteration    10 Dimension   130 NMult   120 NNew     10
 CISAX will form    10 AO SS matrices at one time.
 NMat=    10 NSing=    10 JSym2X= 0.
 Root      1 has converged.
 Root      2 has converged.
 Root      3 has converged.
 Root      4 has converged.
 Root      5 not converged, maximum delta is    0.000001549857536
 Root      6 not converged, maximum delta is    0.000001546772769
 Excitation Energies [eV] at current iteration:
 Root      1 :     3.542752515110237   Change is   -0.000000000017728
 Root      2 :     4.000643734408882   Change is   -0.000000000001582
 Root      3 :     4.269734980990240   Change is   -0.000000000013151
 Root      4 :     5.221043832043681   Change is   -0.000000000176066
 Root      5 :     5.682519574668573   Change is   -0.000000000420100
 Root      6 :     6.164325677345444   Change is   -0.000000000250130
 Iteration    11 Dimension   134 NMult   130 NNew      4
 CISAX will form     4 AO SS matrices at one time.
 NMat=     4 NSing=     4 JSym2X= 0.
 Root      1 has converged.
 Root      2 has converged.
 Root      3 has converged.
 Root      4 has converged.
 Root      5 has converged.
 Root      6 has converged.
 Excitation Energies [eV] at current iteration:
 Root      1 :     3.542752515110354   Change is    0.000000000000116
 Root      2 :     4.000643734408738   Change is   -0.000000000000144
 Root      3 :     4.269734980990144   Change is   -0.000000000000096
 Root      4 :     5.221043832040595   Change is   -0.000000000003086
 Root      5 :     5.682519574646439   Change is   -0.000000000022135
 Root      6 :     6.164325677328613   Change is   -0.000000000016830
 Convergence achieved on expansion vectors.
 PCM Corrected Linear-Response:
 The state of interest is root number   2
 Excitation energy =    4.0006 eV, Total energy =  -633.184027522    
 Recompute the excitation energies using the linear response reaction field.
 Convergence on wavefunction:    0.000001000000000
 Davidson Disk Diagonalization:  ConvIn= 1.00D-06 SkipCon=T Conv= 1.00D-06.
 Max sub-space:  2000 roots to seek:     6 dimension of matrix:        23104
 Iteration     1 Dimension     6 NMult     0 NNew      6
 CISAX will form     6 AO SS matrices at one time.
 NMat=     6 NSing=     6 JSym2X= 0.
 Excitation Energies [eV] at current iteration:
 Root      1 :     3.610523196874758
 Root      2 :     4.027614384723804
 Root      3 :     4.295680794021157
 Root      4 :     5.282348104587262
 Root      5 :     5.816276650648888
 Root      6 :     6.124790473334698
 Iteration     2 Dimension    18 NMult     6 NNew     12
 CISAX will form    12 AO SS matrices at one time.
 NMat=    12 NSing=    12 JSym2X= 0.
 Root      1 not converged, maximum delta is    0.031866177981347
 Root      2 not converged, maximum delta is    0.039979909628096
 Root      3 not converged, maximum delta is    0.010086552802339
 Root      4 not converged, maximum delta is    0.238108814106277
 Root      5 not converged, maximum delta is    0.274326130622737
 Root      6 not converged, maximum delta is    0.048932943315796
 Excitation Energies [eV] at current iteration:
 Root      1 :     3.399494426876062   Change is   -0.211028769998696
 Root      2 :     3.992668394486486   Change is   -0.034945990237318
 Root      3 :     4.263187543325900   Change is   -0.032493250695257
 Root      4 :     5.045516652388176   Change is   -0.236831452199086
 Root      5 :     5.540512245785886   Change is   -0.275764404863001
 Root      6 :     6.102638329580537   Change is   -0.022152143754161
 Iteration     3 Dimension    30 NMult    18 NNew     12
 CISAX will form    12 AO SS matrices at one time.
 NMat=    12 NSing=    12 JSym2X= 0.
 Root      1 not converged, maximum delta is    0.003450348587077
 Root      2 not converged, maximum delta is    0.001174610348706
 Root      3 not converged, maximum delta is    0.001269736470433
 Root      4 not converged, maximum delta is    0.012833017890052
 Root      5 not converged, maximum delta is    0.010251424181521
 Root      6 not converged, maximum delta is    0.008451814414060
 Excitation Energies [eV] at current iteration:
 Root      1 :     3.395960402934109   Change is   -0.003534023941953
 Root      2 :     3.992288980812243   Change is   -0.000379413674244
 Root      3 :     4.262804512337224   Change is   -0.000383030988676
 Root      4 :     5.035035563157669   Change is   -0.010481089230508
 Root      5 :     5.532566909886213   Change is   -0.007945335899674
 Root      6 :     6.100621115729624   Change is   -0.002017213850912
 Iteration     4 Dimension    42 NMult    30 NNew     12
 CISAX will form    12 AO SS matrices at one time.
 NMat=    12 NSing=    12 JSym2X= 0.
 Root      1 not converged, maximum delta is    0.001689284353356
 Root      2 not converged, maximum delta is    0.000286708243940
 Root      3 not converged, maximum delta is    0.000189063276735
 Root      4 not converged, maximum delta is    0.002630081474466
 Root      5 not converged, maximum delta is    0.002698202916804
 Root      6 not converged, maximum delta is    0.008527206895460
 Excitation Energies [eV] at current iteration:
 Root      1 :     3.395484933718602   Change is   -0.000475469215507
 Root      2 :     3.992267260567427   Change is   -0.000021720244816
 Root      3 :     4.262781784628135   Change is   -0.000022727709089
 Root      4 :     5.033278618583886   Change is   -0.001756944573782
 Root      5 :     5.531281128024973   Change is   -0.001285781861239
 Root      6 :     6.099979528460874   Change is   -0.000641587268750
 Iteration     5 Dimension    54 NMult    42 NNew     12
 CISAX will form    12 AO SS matrices at one time.
 NMat=    12 NSing=    12 JSym2X= 0.
 Root      1 not converged, maximum delta is    0.000628293781378
 Root      2 not converged, maximum delta is    0.000109202830059
 Root      3 not converged, maximum delta is    0.000085367049024
 Root      4 not converged, maximum delta is    0.001187914721432
 Root      5 not converged, maximum delta is    0.001041712517966
 Root      6 not converged, maximum delta is    0.004126832925195
 Excitation Energies [eV] at current iteration:
 Root      1 :     3.395452349807658   Change is   -0.000032583910944
 Root      2 :     3.992265637641130   Change is   -0.000001622926297
 Root      3 :     4.262780094943811   Change is   -0.000001689684324
 Root      4 :     5.033109824068224   Change is   -0.000168794515663
 Root      5 :     5.531148390206778   Change is   -0.000132737818196
 Root      6 :     6.099835831531955   Change is   -0.000143696928920
 Iteration     6 Dimension    66 NMult    54 NNew     12
 CISAX will form    12 AO SS matrices at one time.
 NMat=    12 NSing=    12 JSym2X= 0.
 Root      1 not converged, maximum delta is    0.000104801014746
 Root      2 not converged, maximum delta is    0.000033497405254
 Root      3 not converged, maximum delta is    0.000028243688777
 Root      4 not converged, maximum delta is    0.000498847983803
 Root      5 not converged, maximum delta is    0.000552297148052
 Root      6 not converged, maximum delta is    0.001112202082715
 Excitation Energies [eV] at current iteration:
 Root      1 :     3.395449933651462   Change is   -0.000002416156195
 Root      2 :     3.992265484058753   Change is   -0.000000153582377
 Root      3 :     4.262779928002316   Change is   -0.000000166941495
 Root      4 :     5.033093415348663   Change is   -0.000016408719561
 Root      5 :     5.531132048916415   Change is   -0.000016341290362
 Root      6 :     6.099812695638058   Change is   -0.000023135893897
 Iteration     7 Dimension    78 NMult    66 NNew     12
 CISAX will form    12 AO SS matrices at one time.
 NMat=    12 NSing=    12 JSym2X= 0.
 Root      1 not converged, maximum delta is    0.000013497924126
 Root      2 not converged, maximum delta is    0.000004581696148
 Root      3 not converged, maximum delta is    0.000009262947773
 Root      4 not converged, maximum delta is    0.000160152035411
 Root      5 not converged, maximum delta is    0.000187449042100
 Root      6 not converged, maximum delta is    0.000216226759463
 Excitation Energies [eV] at current iteration:
 Root      1 :     3.395449831891873   Change is   -0.000000101759589
 Root      2 :     3.992265477696352   Change is   -0.000000006362401
 Root      3 :     4.262779917195684   Change is   -0.000000010806632
 Root      4 :     5.033092062295411   Change is   -0.000001353053252
 Root      5 :     5.531130363935007   Change is   -0.000001684981408
 Root      6 :     6.099810289283051   Change is   -0.000002406355007
 Iteration     8 Dimension    90 NMult    78 NNew     12
 CISAX will form    12 AO SS matrices at one time.
 NMat=    12 NSing=    12 JSym2X= 0.
 Root      1 not converged, maximum delta is    0.000002958410553
 Root      2 not converged, maximum delta is    0.000001254027863
 Root      3 not converged, maximum delta is    0.000001512974436
 Root      4 not converged, maximum delta is    0.000037385244671
 Root      5 not converged, maximum delta is    0.000068223817974
 Root      6 not converged, maximum delta is    0.000098483122874
 Excitation Energies [eV] at current iteration:
 Root      1 :     3.395449826878605   Change is   -0.000000005013268
 Root      2 :     3.992265477451599   Change is   -0.000000000244753
 Root      3 :     4.262779916723935   Change is   -0.000000000471748
 Root      4 :     5.033091970843924   Change is   -0.000000091451486
 Root      5 :     5.531130210344115   Change is   -0.000000153590892
 Root      6 :     6.099810016148813   Change is   -0.000000273134239
 Iteration     9 Dimension   102 NMult    90 NNew     12
 CISAX will form    12 AO SS matrices at one time.
 NMat=    12 NSing=    12 JSym2X= 0.
 Root      1 has converged.
 Root      2 has converged.
 Root      3 has converged.
 Root      4 not converged, maximum delta is    0.000006734703841
 Root      5 not converged, maximum delta is    0.000013717232917
 Root      6 not converged, maximum delta is    0.000029208908332
 Excitation Energies [eV] at current iteration:
 Root      1 :     3.395449826640174   Change is   -0.000000000238431
 Root      2 :     3.992265477440068   Change is   -0.000000000011531
 Root      3 :     4.262779916701082   Change is   -0.000000000022853
 Root      4 :     5.033091965027665   Change is   -0.000000005816260
 Root      5 :     5.531130196789290   Change is   -0.000000013554825
 Root      6 :     6.099809978421341   Change is   -0.000000037727471
 Iteration    10 Dimension   108 NMult   102 NNew      6
 CISAX will form     6 AO SS matrices at one time.
 NMat=     6 NSing=     6 JSym2X= 0.
 Root      1 has converged.
 Root      2 has converged.
 Root      3 has converged.
 Root      4 not converged, maximum delta is    0.000001861832595
 Root      5 not converged, maximum delta is    0.000003093648891
 Root      6 not converged, maximum delta is    0.000009932627475
 Excitation Energies [eV] at current iteration:
 Root      1 :     3.395449826638988   Change is   -0.000000000001187
 Root      2 :     3.992265477440006   Change is   -0.000000000000062
 Root      3 :     4.262779916700677   Change is   -0.000000000000405
 Root      4 :     5.033091964682916   Change is   -0.000000000344749
 Root      5 :     5.531130195876393   Change is   -0.000000000912897
 Root      6 :     6.099809974032145   Change is   -0.000000004389196
 Iteration    11 Dimension   114 NMult   108 NNew      6
 CISAX will form     6 AO SS matrices at one time.
 NMat=     6 NSing=     6 JSym2X= 0.
 Root      1 has converged.
 Root      2 has converged.
 Root      3 has converged.
 Root      4 has converged.
 Root      5 has converged.
 Root      6 not converged, maximum delta is    0.000001841879271
 Excitation Energies [eV] at current iteration:
 Root      1 :     3.395449826638964   Change is   -0.000000000000024
 Root      2 :     3.992265477439965   Change is   -0.000000000000041
 Root      3 :     4.262779916700504   Change is   -0.000000000000174
 Root      4 :     5.033091964659804   Change is   -0.000000000023112
 Root      5 :     5.531130195814089   Change is   -0.000000000062304
 Root      6 :     6.099809973628938   Change is   -0.000000000403207
 Iteration    12 Dimension   116 NMult   114 NNew      2
 CISAX will form     2 AO SS matrices at one time.
 NMat=     2 NSing=     2 JSym2X= 0.
 Root      1 has converged.
 Root      2 has converged.
 Root      3 has converged.
 Root      4 has converged.
 Root      5 has converged.
 Root      6 has converged.
 Excitation Energies [eV] at current iteration:
 Root      1 :     3.395449826638746   Change is   -0.000000000000218
 Root      2 :     3.992265477439903   Change is   -0.000000000000062
 Root      3 :     4.262779916700446   Change is   -0.000000000000057
 Root      4 :     5.033091964659739   Change is   -0.000000000000065
 Root      5 :     5.531130195813584   Change is   -0.000000000000505
 Root      6 :     6.099809973596849   Change is   -0.000000000032089
 Convergence achieved on expansion vectors.
 ***********************************************************************
 Excited states from <AA,BB:AA,BB> singles matrix:
 ***********************************************************************
 
 1PDM for each excited state written to RWF  633
 Ground to excited state transition densities written to RWF  633
 Ground to excited state transition electric dipole moments (Au):
       state          X           Y           Z        Dip. S.      Osc.
         1        -1.7191     -0.1872     -0.0571      2.9936      0.2490
         2        -0.2156     -0.0378     -0.0500      0.0504      0.0049
         3         0.0142     -0.1622      0.0439      0.0284      0.0030
         4         0.1581     -1.9947      0.1408      4.0237      0.4962
         5        -0.1440      1.4037     -0.0153      1.9913      0.2698
         6        -0.0325      0.2480      0.0528      0.0654      0.0098
 Ground to excited state transition velocity dipole moments (Au):
       state          X           Y           Z        Dip. S.      Osc.
         1         0.2065      0.0196      0.0076      0.0431      0.2302
         2         0.0311      0.0048      0.0051      0.0010      0.0046
         3        -0.0021      0.0241     -0.0032      0.0006      0.0025
         4        -0.0316      0.3533     -0.0213      0.1263      0.4552
         5         0.0285     -0.2812      0.0040      0.0799      0.2620
         6         0.0082     -0.0512     -0.0313      0.0037      0.0109
 Ground to excited state transition magnetic dipole moments (Au):
       state          X           Y           Z
         1         0.0898      0.0051     -1.4262
         2        -0.8020     -0.2398     -0.4286
         3        -0.0613     -0.9791     -0.1237
         4         0.0923      0.1196     -0.2035
         5        -0.2183     -0.1084      0.2280
         6         0.0412      0.0197     -0.0268
 Ground to excited state transition velocity quadrupole moments (Au):
       state          XX          YY          ZZ          XY          XZ          YZ
         1         0.2466     -0.1263     -0.0008     -0.5556      0.0638     -0.0096
         2         0.0192      0.0100     -0.0055     -0.0897      0.0343     -0.0831
         3        -0.0246      0.0126     -0.0267     -0.0431      0.0711      0.0008
         4        -1.4178      0.3289      0.0083     -0.1758     -0.0947     -0.0437
         5         0.4768     -0.2854     -0.0485      0.1287      0.0635     -0.0654
         6        -0.3294     -0.2369      0.1933     -0.0224     -0.0388      0.1014
 <0|del|b> * <b|rxdel|0> + <0|del|b> * <b|delr+rdel|0>
 Rotatory Strengths (R) in cgs (10**-40 erg-esu-cm/Gauss)
       state          XX          YY          ZZ    R(velocity)    E-M Angle
         1       -46.0182     28.1872     61.9822     14.7171       88.50
         2        -9.5307    -70.4617    -56.2460    -45.4128      160.60
         3       -56.0127      0.8577    -49.1722    -34.7757      163.10
         4       160.2079     -1.8091      8.5412     55.6467       61.00
         5        86.5828    -13.3703     14.3539     29.1888       74.53
         6        -2.2931      2.0679      0.7656      0.1801       86.94
 1/2[<0|r|b>*<b|rxdel|0> + (<0|rxdel|b>*<b|r|0>)*]
 Rotatory Strengths (R) in cgs (10**-40 erg-esu-cm/Gauss)
       state          XX          YY          ZZ     R(length)
         1       109.1893      0.6689    -57.6002     17.4194
         2      -122.2958     -6.4170    -15.1406    -47.9512
         3         0.6171   -112.2783      3.8398    -35.9405
         4       -10.3213    168.6571     20.2609     59.5322
         5       -22.2288    107.5911      2.4617     29.2747
         6         0.9482     -3.4511      0.9992     -0.5012
  1/2[<0|del|b>*<b|r|0> + (<0|r|b>*<b|del|0>)*] (Au)
       state          X           Y           Z        Dip. S.   Osc.(frdel)
         1        -0.3550     -0.0037     -0.0004      0.3591      0.2394
         2        -0.0067     -0.0002     -0.0003      0.0071      0.0048
         3        -0.0000     -0.0039     -0.0001      0.0041      0.0027
         4        -0.0050     -0.7048     -0.0030      0.7128      0.4752
         5        -0.0041     -0.3947     -0.0001      0.3989      0.2659
         6        -0.0003     -0.0127     -0.0017      0.0146      0.0097

 Excitation energies and oscillator strengths:
 
 Excited State   1:      Singlet-A      3.3954 eV  365.15 nm  f=0.2490  <S**2>=0.000
      52 -> 53         0.69775
 
 Excited State   2:      Singlet-A      3.9923 eV  310.56 nm  f=0.0049  <S**2>=0.000
      50 -> 53         0.12589
      50 -> 54        -0.14085
      51 -> 53         0.57123
      51 -> 54        -0.33193
 This state for optimization and/or second-order correction.
 Total Energy, E(TD-HF/TD-DFT) =  -633.184335417    
 Copying the excited state density for this state as the 1-particle RhoCI density.
 
 Excited State   3:      Singlet-A      4.2628 eV  290.85 nm  f=0.0030  <S**2>=0.000
      49 -> 53         0.19560
      49 -> 54         0.14523
      50 -> 53         0.51612
      50 -> 54         0.31673
      50 -> 58         0.11298
      51 -> 53        -0.12794
      51 -> 54        -0.17059
 
 Excited State   4:      Singlet-A      5.0331 eV  246.34 nm  f=0.4962  <S**2>=0.000
      49 -> 53        -0.14066
      52 -> 54         0.68366
 
 Excited State   5:      Singlet-A      5.5311 eV  224.16 nm  f=0.2698  <S**2>=0.000
      49 -> 53         0.62638
      50 -> 53        -0.25183
      52 -> 54         0.14033
 
 Excited State   6:      Singlet-A      6.0998 eV  203.26 nm  f=0.0098  <S**2>=0.000
      52 -> 55         0.66463
      52 -> 56         0.13171
 SavETr:  write IOETrn=   770 NScale= 10 NData=  16 NLR=1 NState=    6 LETran=     118.
 The selected state is a singlet.
 CISGrd: IGrad=1 NXY=2 DFT=T
 CISAX will form     1 AO SS matrices at one time.
 NMat=     1 NSing=     1 JSym2X= 0.
 Leave Link  914 at Sat Jan 24 21:57:06 2026, MaxMem=  2147483648 cpu:            8228.3 elap:             516.0
 (Enter /data/home/wyx/g16/l1002.exe)
 Minotr:  Closed shell wavefunction.
          Computing CIS/TDA/TD derivatives.
          Using Z-Vector for PSCF gradient.
          Skipping F1 and S1 gradient terms here.
 NEqPCM:  Using equilibrium solvation (IEInf=0, Eps=  78.3553, EpsInf=   1.7778)
          Frozen-core window.
          Direct CPHF calculation.
          Differentiating once with respect to electric field.
                with respect to dipole field.
          Electric field/nuclear overlap derivatives assumed to be zero.
          Requested convergence is 1.0D-10 RMS, and 1.0D-09 maximum.
          NewPWx=F KeepS1=T KeepF1=T KeepIn=T MapXYZ=F SortEE=F KeepMc=T.
 Two-electron integral symmetry used by symmetrizing perturbed Fock matrices.
          MDV=    2147483648 using IRadAn=       5.
          Solving linear equations separately, MaxMat=     384.
          There are     1 degrees of freedom in the 1st order CPHF.  IDoFFX=0 NUNeed=     1.
 FoFJK:  IHMeth= 1 ICntrl=       0 DoSepK=T KAlg= 0 I1Cent=           0 FoldK=F
 IRaf=         1 NMat=       1 IRICut=       1 DoRegI=T DoRafI=F ISym2E=-1 IDoP0=0 IntGTp=1.
 FoFCou: FMM=F IPFlag=           0 FMFlag=      100000 FMFlg1=           0
         NFxFlg=           0 DoJE=T BraDBF=F KetDBF=F FulRan=T
         wScrn=  0.000000 ICntrl=       500 IOpCl=  0 I1Cent=           0 NGrid=           0
         NMat0=    1 NMatS0=      1 NMatT0=    0 NMatD0=    1 NMtDS0=    0 NMtDT0=    0
 Petite list used in FoFCou.
 LinEq1:  Iter=  0 NonCon=     1 RMS=8.16D-03 Max=3.15D-01 NDo=     1
 AX will form     1 AO Fock derivatives at one time.
 LinEq1:  Iter=  1 NonCon=     1 RMS=2.13D-03 Max=7.81D-02 NDo=     1
 LinEq1:  Iter=  2 NonCon=     1 RMS=1.47D-03 Max=8.38D-02 NDo=     1
 LinEq1:  Iter=  3 NonCon=     1 RMS=5.93D-04 Max=3.13D-02 NDo=     1
 LinEq1:  Iter=  4 NonCon=     1 RMS=3.11D-04 Max=1.41D-02 NDo=     1
 LinEq1:  Iter=  5 NonCon=     1 RMS=1.60D-04 Max=7.76D-03 NDo=     1
 LinEq1:  Iter=  6 NonCon=     1 RMS=7.76D-05 Max=2.36D-03 NDo=     1
 LinEq1:  Iter=  7 NonCon=     1 RMS=4.36D-05 Max=1.69D-03 NDo=     1
 LinEq1:  Iter=  8 NonCon=     1 RMS=1.76D-05 Max=5.07D-04 NDo=     1
 LinEq1:  Iter=  9 NonCon=     1 RMS=1.31D-05 Max=6.25D-04 NDo=     1
 LinEq1:  Iter= 10 NonCon=     1 RMS=5.20D-06 Max=9.07D-05 NDo=     1
 LinEq1:  Iter= 11 NonCon=     1 RMS=3.19D-06 Max=1.22D-04 NDo=     1
 LinEq1:  Iter= 12 NonCon=     1 RMS=1.12D-06 Max=2.74D-05 NDo=     1
 LinEq1:  Iter= 13 NonCon=     1 RMS=5.18D-07 Max=1.35D-05 NDo=     1
 LinEq1:  Iter= 14 NonCon=     1 RMS=1.97D-07 Max=8.08D-06 NDo=     1
 LinEq1:  Iter= 15 NonCon=     1 RMS=9.75D-08 Max=4.34D-06 NDo=     1
 LinEq1:  Iter= 16 NonCon=     1 RMS=4.11D-08 Max=1.71D-06 NDo=     1
 LinEq1:  Iter= 17 NonCon=     1 RMS=1.45D-08 Max=3.26D-07 NDo=     1
 LinEq1:  Iter= 18 NonCon=     1 RMS=6.08D-09 Max=9.84D-08 NDo=     1
 LinEq1:  Iter= 19 NonCon=     1 RMS=1.68D-09 Max=3.15D-08 NDo=     1
 LinEq1:  Iter= 20 NonCon=     1 RMS=4.16D-10 Max=1.04D-08 NDo=     1
 LinEq1:  Iter= 21 NonCon=     1 RMS=1.38D-10 Max=3.65D-09 NDo=     1
 LinEq1:  Iter= 22 NonCon=     1 RMS=6.09D-11 Max=2.12D-09 NDo=     1
 LinEq1:  Iter= 23 NonCon=     0 RMS=1.84D-11 Max=8.62D-10 NDo=     1
 Linear equations converged to 1.000D-10 1.000D-09 after    23 iterations.
 PCM Corrected Linear-Response - Equilibrium solvation:
 Corrected transition energy               =    3.8989          eV
 Total energy after correction             = -633.187766042     a.u.
 NEqPCM:  Using non-equilibrium solvation (IEInf=1, Eps=  78.3553, EpsInf=   1.7778)
 Inv3:  Mode=1 IEnd=    13330992.
 Iteration    1 A*A^-1 deviation from unit magnitude is 3.66D-15 for    753.
 Iteration    1 A*A^-1 deviation from orthogonality  is 1.44D-15 for   2023   1611.
 Iteration    1 A^-1*A deviation from unit magnitude is 3.33D-15 for    753.
 Iteration    1 A^-1*A deviation from orthogonality  is 1.55D-15 for   1933     66.
 NEqSol: Computing the dynamic-inertial partition of the PCM polarization charges.
 End of Minotr F.D. properties file   721 does not exist.
 End of Minotr F.D. properties file   722 does not exist.
 End of Minotr F.D. properties file   788 does not exist.
 Leave Link 1002 at Sat Jan 24 21:59:07 2026, MaxMem=  2147483648 cpu:            1908.6 elap:             120.5
 (Enter /data/home/wyx/g16/l601.exe)
 Copying SCF densities to generalized density rwf, IOpCl= 0 IROHF=0.

 **********************************************************************

            Population analysis using the CI density.

 **********************************************************************

 Orbital symmetries:
       Occupied  (A) (A) (A) (A) (A) (A) (A) (A) (A) (A) (A) (A)
                 (A) (A) (A) (A) (A) (A) (A) (A) (A) (A) (A) (A)
                 (A) (A) (A) (A) (A) (A) (A) (A) (A) (A) (A) (A)
                 (A) (A) (A) (A) (A) (A) (A) (A) (A) (A) (A) (A)
                 (A) (A) (A) (A)
       Virtual   (A) (A) (A) (A) (A) (A) (A) (A) (A) (A) (A) (A)
                 (A) (A) (A) (A) (A) (A) (A) (A) (A) (A) (A) (A)
                 (A) (A) (A) (A) (A) (A) (A) (A) (A) (A) (A) (A)
                 (A) (A) (A) (A) (A) (A) (A) (A) (A) (A) (A) (A)
                 (A) (A) (A) (A) (A) (A) (A) (A) (A) (A) (A) (A)
                 (A) (A) (A) (A) (A) (A) (A) (A) (A) (A) (A) (A)
                 (A) (A) (A) (A) (A) (A) (A) (A) (A) (A) (A) (A)
                 (A) (A) (A) (A) (A) (A) (A) (A) (A) (A) (A) (A)
                 (A) (A) (A) (A) (A) (A) (A) (A) (A) (A) (A) (A)
                 (A) (A) (A) (A) (A) (A) (A) (A) (A) (A) (A) (A)
                 (A) (A) (A) (A) (A) (A) (A) (A) (A) (A) (A) (A)
                 (A) (A) (A) (A) (A) (A) (A) (A) (A) (A) (A) (A)
                 (A) (A) (A) (A) (A) (A) (A) (A) (A) (A) (A) (A)
                 (A) (A) (A) (A) (A) (A) (A) (A) (A) (A) (A) (A)
                 (A) (A) (A) (A) (A) (A) (A) (A) (A) (A) (A) (A)
                 (A) (A) (A) (A) (A) (A) (A) (A) (A) (A) (A) (A)
                 (A) (A) (A) (A) (A) (A) (A) (A) (A) (A) (A) (A)
                 (A) (A) (A) (A) (A) (A) (A) (A) (A) (A) (A) (A)
                 (A) (A) (A) (A) (A) (A) (A) (A) (A) (A) (A) (A)
                 (A) (A) (A) (A) (A) (A) (A) (A) (A) (A) (A) (A)
                 (A) (A) (A) (A) (A) (A) (A) (A) (A) (A) (A) (A)
                 (A) (A) (A) (A) (A) (A) (A) (A) (A) (A) (A) (A)
                 (A) (A) (A) (A) (A) (A) (A) (A) (A) (A) (A) (A)
                 (A) (A) (A) (A) (A) (A) (A) (A) (A) (A) (A) (A)
                 (A) (A) (A) (A) (A) (A) (A) (A) (A) (A) (A) (A)
                 (A) (A) (A) (A)
 The electronic state is 1-A.
 Alpha  occ. eigenvalues --  -19.17952 -19.17363 -14.44107 -10.33484 -10.33284
 Alpha  occ. eigenvalues --  -10.32055 -10.31734 -10.25615 -10.25034 -10.24976
 Alpha  occ. eigenvalues --  -10.24764 -10.24653 -10.24144 -10.23839  -1.12047
 Alpha  occ. eigenvalues --   -1.11015  -1.07531  -0.91294  -0.90400  -0.83870
 Alpha  occ. eigenvalues --   -0.82499  -0.81480  -0.78587  -0.74102  -0.71214
 Alpha  occ. eigenvalues --   -0.68811  -0.61783  -0.58319  -0.56849  -0.55142
 Alpha  occ. eigenvalues --   -0.54559  -0.54080  -0.52555  -0.51892  -0.50671
 Alpha  occ. eigenvalues --   -0.49991  -0.49491  -0.49047  -0.48405  -0.48217
 Alpha  occ. eigenvalues --   -0.46752  -0.45336  -0.44848  -0.43426  -0.43033
 Alpha  occ. eigenvalues --   -0.42428  -0.42016  -0.41771  -0.32926  -0.32346
 Alpha  occ. eigenvalues --   -0.31391  -0.26298
 Alpha virt. eigenvalues --   -0.02541   0.02244   0.06546   0.08260   0.08824
 Alpha virt. eigenvalues --    0.10154   0.10688   0.12064   0.12699   0.13776
 Alpha virt. eigenvalues --    0.14165   0.15231   0.15669   0.16355   0.17007
 Alpha virt. eigenvalues --    0.17416   0.17619   0.17980   0.18176   0.19169
 Alpha virt. eigenvalues --    0.19909   0.21790   0.22733   0.23444   0.23512
 Alpha virt. eigenvalues --    0.24317   0.24713   0.25476   0.25810   0.26561
 Alpha virt. eigenvalues --    0.27084   0.27399   0.29011   0.29279   0.30189
 Alpha virt. eigenvalues --    0.31520   0.32107   0.32492   0.33676   0.34407
 Alpha virt. eigenvalues --    0.35400   0.35819   0.36857   0.38210   0.38815
 Alpha virt. eigenvalues --    0.39505   0.41021   0.41927   0.42287   0.42694
 Alpha virt. eigenvalues --    0.44070   0.44266   0.45338   0.46075   0.46291
 Alpha virt. eigenvalues --    0.47160   0.48097   0.48364   0.48390   0.48865
 Alpha virt. eigenvalues --    0.49563   0.49625   0.50907   0.51330   0.51376
 Alpha virt. eigenvalues --    0.52647   0.53140   0.53749   0.54026   0.54399
 Alpha virt. eigenvalues --    0.54633   0.55661   0.55964   0.56688   0.58139
 Alpha virt. eigenvalues --    0.58611   0.59105   0.60373   0.61046   0.62115
 Alpha virt. eigenvalues --    0.63235   0.65330   0.65856   0.66458   0.67828
 Alpha virt. eigenvalues --    0.69294   0.70749   0.71708   0.72608   0.73120
 Alpha virt. eigenvalues --    0.73703   0.74447   0.74819   0.76284   0.77122
 Alpha virt. eigenvalues --    0.78484   0.79528   0.82424   0.83515   0.85223
 Alpha virt. eigenvalues --    0.88029   0.91103   0.94622   0.99738   1.25210
 Alpha virt. eigenvalues --    1.25646   1.27261   1.28314   1.29581   1.31507
 Alpha virt. eigenvalues --    1.32633   1.32750   1.33948   1.35459   1.35825
 Alpha virt. eigenvalues --    1.36904   1.37369   1.38154   1.39217   1.39670
 Alpha virt. eigenvalues --    1.40107   1.40649   1.41320   1.41617   1.41898
 Alpha virt. eigenvalues --    1.43316   1.43986   1.44103   1.45312   1.47118
 Alpha virt. eigenvalues --    1.47796   1.49131   1.49628   1.50685   1.51259
 Alpha virt. eigenvalues --    1.52309   1.52627   1.53466   1.54628   1.57362
 Alpha virt. eigenvalues --    1.58159   1.60258   1.60820   1.61376   1.62291
 Alpha virt. eigenvalues --    1.62747   1.63393   1.64366   1.65555   1.66327
 Alpha virt. eigenvalues --    1.67015   1.67617   1.68136   1.68465   1.69112
 Alpha virt. eigenvalues --    1.69486   1.70685   1.71130   1.72208   1.73078
 Alpha virt. eigenvalues --    1.73294   1.74827   1.76104   1.77016   1.78447
 Alpha virt. eigenvalues --    1.80174   1.83228   1.84619   1.85911   1.86457
 Alpha virt. eigenvalues --    1.87091   1.87482   1.87947   1.89536   1.90462
 Alpha virt. eigenvalues --    1.91372   1.94144   1.95669   1.98135   1.99809
 Alpha virt. eigenvalues --    2.00869   2.03846   2.04606   2.06624   2.09437
 Alpha virt. eigenvalues --    2.11174   2.13203   2.14575   2.17312   2.19527
 Alpha virt. eigenvalues --    2.21325   2.21421   2.22057   2.23062   2.25581
 Alpha virt. eigenvalues --    2.26952   2.28049   2.29253   2.30907   2.31782
 Alpha virt. eigenvalues --    2.34035   2.34462   2.35735   2.37026   2.37804
 Alpha virt. eigenvalues --    2.39264   2.40699   2.41533   2.44505   2.44660
 Alpha virt. eigenvalues --    2.45403   2.47914   2.49336   2.50656   2.51994
 Alpha virt. eigenvalues --    2.52478   2.53186   2.54290   2.56699   2.58411
 Alpha virt. eigenvalues --    2.59197   2.60435   2.60594   2.61191   2.62700
 Alpha virt. eigenvalues --    2.64198   2.65685   2.66724   2.67456   2.69442
 Alpha virt. eigenvalues --    2.70856   2.71351   2.73146   2.73720   2.74388
 Alpha virt. eigenvalues --    2.76014   2.77102   2.77592   2.78164   2.79180
 Alpha virt. eigenvalues --    2.80642   2.81220   2.82508   2.83749   2.84650
 Alpha virt. eigenvalues --    2.85861   2.85975   2.87873   2.90259   2.92367
 Alpha virt. eigenvalues --    2.97471   2.99162   3.00470   3.04643   3.10151
 Alpha virt. eigenvalues --    3.11389   3.12865   3.15198   3.17753   3.18045
 Alpha virt. eigenvalues --    3.21242   3.22089   3.24825   3.25513   3.26499
 Alpha virt. eigenvalues --    3.26583   3.29388   3.33073   3.34778   3.36571
 Alpha virt. eigenvalues --    3.37331   3.39121   3.39852   3.40636   3.42017
 Alpha virt. eigenvalues --    3.42675   3.44798   3.45704   3.46526   3.47166
 Alpha virt. eigenvalues --    3.49598   3.50277   3.54430   3.57331   3.58993
 Alpha virt. eigenvalues --    3.60021   3.90020   3.99451   4.33946   4.34636
 Alpha virt. eigenvalues --   21.63117  21.77909  22.07460  22.10613  22.11253
 Alpha virt. eigenvalues --   22.13455  22.15549  22.17772  22.21118  22.25491
 Alpha virt. eigenvalues --   22.30748  31.93331  43.62557  43.64813
          Condensed to atoms (all electrons):
               1          2          3          4          5          6
     1  O    7.978128   0.000000  -0.000231   0.000018   0.017011   0.017520
     2  O    0.000000   8.001739   0.000811   0.000024  -0.091410   0.000239
     3  N   -0.000231   0.000811   6.396634   0.375578  -0.088698   0.390552
     4  H    0.000018   0.000024   0.375578   0.409907   0.015537  -0.046366
     5  C    0.017011  -0.091410  -0.088698   0.015537   6.018467  -0.080392
     6  C    0.017520   0.000239   0.390552  -0.046366  -0.080392   5.608496
     7  C   -0.000448   0.014870   0.305745  -0.043857   0.297792  -0.094383
     8  C    0.000001   0.286808   0.014321  -0.001072   0.360555   0.018211
     9  C   -0.029700   0.010707   0.006022  -0.000227  -0.437109  -0.110846
    10  H    0.004369  -0.000040   0.003891   0.000014  -0.020294  -0.014703
    11  H    0.017891  -0.000091  -0.001163   0.000019  -0.105108   0.022804
    12  C   -0.237199  -0.000937  -0.106804   0.016387   0.209809  -0.180287
    13  C    0.720811   0.000018  -0.000515   0.000436   0.080669   0.178198
    14  C   -0.000007  -0.009298  -0.034377  -0.004326  -0.061763   0.003009
    15  H    0.000000   0.000422   0.003277   0.000598   0.013587   0.003148
    16  H   -0.000000  -0.001761  -0.001047   0.000654  -0.008316   0.000684
    17  H    0.000000   0.008780   0.003061   0.000730   0.008006  -0.000414
    18  C   -0.000174  -0.047578  -0.000352   0.000012  -0.014631  -0.001045
    19  H   -0.000004   0.001550   0.000001  -0.000001   0.006136   0.000110
    20  H   -0.000047   0.002524  -0.000028   0.000000  -0.014211  -0.000058
    21  H    0.000110   0.002604   0.000040   0.000000  -0.007798  -0.000502
    22  C   -0.112093   0.000000   0.000129   0.000117   0.003797  -0.008103
    23  H    0.004670  -0.000000  -0.000044  -0.000052  -0.000524  -0.032078
    24  H    0.001756  -0.000000  -0.000007  -0.000019  -0.000105   0.011476
    25  H    0.009086  -0.000000   0.000035  -0.000002  -0.000161  -0.001550
    26  C    0.000862   0.000004  -0.032694  -0.006963  -0.003355   0.174528
    27  H   -0.000251   0.000000   0.002209   0.000927  -0.000146  -0.054168
    28  H   -0.000043   0.000000  -0.003635   0.000472   0.000557  -0.034798
    29  H    0.000027  -0.000000   0.000690   0.001140  -0.000315  -0.047975
               7          8          9         10         11         12
     1  O   -0.000448   0.000001  -0.029700   0.004369   0.017891  -0.237199
     2  O    0.014870   0.286808   0.010707  -0.000040  -0.000091  -0.000937
     3  N    0.305745   0.014321   0.006022   0.003891  -0.001163  -0.106804
     4  H   -0.043857  -0.001072  -0.000227   0.000014   0.000019   0.016387
     5  C    0.297792   0.360555  -0.437109  -0.020294  -0.105108   0.209809
     6  C   -0.094383   0.018211  -0.110846  -0.014703   0.022804  -0.180287
     7  C    5.545243  -0.126289  -0.062614  -0.009375   0.017599  -0.030862
     8  C   -0.126289   5.399623  -0.017642  -0.007506  -0.011371  -0.028836
     9  C   -0.062614  -0.017642   6.443191   0.386690   0.525363  -0.146017
    10  H   -0.009375  -0.007506   0.386690   0.553628  -0.037276  -0.014826
    11  H    0.017599  -0.011371   0.525363  -0.037276   0.507344  -0.106696
    12  C   -0.030862  -0.028836  -0.146017  -0.014826  -0.106696   7.460642
    13  C    0.009555  -0.003147  -0.296496   0.002748   0.002048  -0.389893
    14  C    0.174500  -0.033774   0.012570  -0.001144   0.000455  -0.001706
    15  H   -0.057136   0.001344  -0.001896   0.000114  -0.000007   0.000655
    16  H   -0.043768   0.001283   0.001720  -0.000073   0.000063  -0.001124
    17  H   -0.051635  -0.028352   0.002173   0.000081  -0.000066  -0.000804
    18  C    0.008835   0.183861  -0.015102  -0.010255   0.005954   0.000618
    19  H    0.001060  -0.039783   0.002758  -0.000135   0.000511  -0.001060
    20  H   -0.002435  -0.055212  -0.010127   0.001152  -0.001350   0.003089
    21  H    0.001615  -0.039088   0.001084   0.002498  -0.005686   0.001678
    22  C    0.000097  -0.000053   0.001446   0.001618   0.001160  -0.273308
    23  H   -0.000028  -0.000006   0.003449  -0.000125  -0.000095   0.062969
    24  H    0.000032   0.000000  -0.002308   0.000150  -0.000129  -0.009464
    25  H    0.000014   0.000002   0.000496  -0.000052  -0.000129   0.026591
    26  C   -0.000239   0.000509   0.029191  -0.000827  -0.000032  -0.077423
    27  H   -0.001078   0.000011   0.000914  -0.000097   0.000011  -0.001915
    28  H    0.000331  -0.000037  -0.001597  -0.000013   0.000047  -0.018754
    29  H    0.004188  -0.000012  -0.001167   0.000095  -0.000009   0.022814
              13         14         15         16         17         18
     1  O    0.720811  -0.000007   0.000000  -0.000000   0.000000  -0.000174
     2  O    0.000018  -0.009298   0.000422  -0.001761   0.008780  -0.047578
     3  N   -0.000515  -0.034377   0.003277  -0.001047   0.003061  -0.000352
     4  H    0.000436  -0.004326   0.000598   0.000654   0.000730   0.000012
     5  C    0.080669  -0.061763   0.013587  -0.008316   0.008006  -0.014631
     6  C    0.178198   0.003009   0.003148   0.000684  -0.000414  -0.001045
     7  C    0.009555   0.174500  -0.057136  -0.043768  -0.051635   0.008835
     8  C   -0.003147  -0.033774   0.001344   0.001283  -0.028352   0.183861
     9  C   -0.296496   0.012570  -0.001896   0.001720   0.002173  -0.015102
    10  H    0.002748  -0.001144   0.000114  -0.000073   0.000081  -0.010255
    11  H    0.002048   0.000455  -0.000007   0.000063  -0.000066   0.005954
    12  C   -0.389893  -0.001706   0.000655  -0.001124  -0.000804   0.000618
    13  C    5.459623  -0.000174   0.000030  -0.000052  -0.000007   0.000398
    14  C   -0.000174   5.193430   0.404804   0.405365   0.434078   0.003531
    15  H    0.000030   0.404804   0.543761  -0.027308  -0.027646   0.000020
    16  H   -0.000052   0.405365  -0.027308   0.532212  -0.025296  -0.000487
    17  H   -0.000007   0.434078  -0.027646  -0.025296   0.514161  -0.001141
    18  C    0.000398   0.003531   0.000020  -0.000487  -0.001141   5.089340
    19  H   -0.000040  -0.000381  -0.000001   0.000049   0.000299   0.391050
    20  H    0.000019   0.000040   0.000005  -0.000067  -0.000124   0.434135
    21  H    0.000229  -0.000370  -0.000004   0.000029   0.000086   0.410229
    22  C    0.298967  -0.000018   0.000003  -0.000001  -0.000000   0.000009
    23  H   -0.087278  -0.000000  -0.000000   0.000000   0.000000   0.000003
    24  H   -0.026906  -0.000001   0.000000  -0.000000  -0.000000  -0.000002
    25  H   -0.045143   0.000001  -0.000000   0.000000   0.000000  -0.000000
    26  C   -0.057090   0.001567  -0.000485   0.000079   0.000109   0.000012
    27  H   -0.007484   0.000112  -0.000022   0.000007   0.000001   0.000000
    28  H    0.007187  -0.000138   0.000028  -0.000045  -0.000002  -0.000001
    29  H    0.000079  -0.000334   0.000167  -0.000017  -0.000012   0.000000
              19         20         21         22         23         24
     1  O   -0.000004  -0.000047   0.000110  -0.112093   0.004670   0.001756
     2  O    0.001550   0.002524   0.002604   0.000000  -0.000000  -0.000000
     3  N    0.000001  -0.000028   0.000040   0.000129  -0.000044  -0.000007
     4  H   -0.000001   0.000000   0.000000   0.000117  -0.000052  -0.000019
     5  C    0.006136  -0.014211  -0.007798   0.003797  -0.000524  -0.000105
     6  C    0.000110  -0.000058  -0.000502  -0.008103  -0.032078   0.011476
     7  C    0.001060  -0.002435   0.001615   0.000097  -0.000028   0.000032
     8  C   -0.039783  -0.055212  -0.039088  -0.000053  -0.000006   0.000000
     9  C    0.002758  -0.010127   0.001084   0.001446   0.003449  -0.002308
    10  H   -0.000135   0.001152   0.002498   0.001618  -0.000125   0.000150
    11  H    0.000511  -0.001350  -0.005686   0.001160  -0.000095  -0.000129
    12  C   -0.001060   0.003089   0.001678  -0.273308   0.062969  -0.009464
    13  C   -0.000040   0.000019   0.000229   0.298967  -0.087278  -0.026906
    14  C   -0.000381   0.000040  -0.000370  -0.000018  -0.000000  -0.000001
    15  H   -0.000001   0.000005  -0.000004   0.000003  -0.000000   0.000000
    16  H    0.000049  -0.000067   0.000029  -0.000001   0.000000  -0.000000
    17  H    0.000299  -0.000124   0.000086  -0.000000   0.000000  -0.000000
    18  C    0.391050   0.434135   0.410229   0.000009   0.000003  -0.000002
    19  H    0.522535  -0.031445  -0.018624  -0.000001   0.000000  -0.000000
    20  H   -0.031445   0.533432  -0.037713   0.000001  -0.000000   0.000000
    21  H   -0.018624  -0.037713   0.513835   0.000013  -0.000000  -0.000000
    22  C   -0.000001   0.000001   0.000013   5.432254   0.395505   0.402881
    23  H    0.000000  -0.000000  -0.000000   0.395505   0.540336  -0.027188
    24  H   -0.000000   0.000000  -0.000000   0.402881  -0.027188   0.498231
    25  H    0.000000  -0.000000   0.000000   0.381211  -0.021438  -0.009095
    26  C    0.000001  -0.000005  -0.000005  -0.031956   0.015803  -0.015352
    27  H    0.000000  -0.000000   0.000000   0.008801  -0.009687  -0.001968
    28  H   -0.000000   0.000001  -0.000000  -0.011209  -0.001817   0.001456
    29  H   -0.000000   0.000000   0.000000   0.001943   0.000717   0.000230
              25         26         27         28         29
     1  O    0.009086   0.000862  -0.000251  -0.000043   0.000027
     2  O   -0.000000   0.000004   0.000000   0.000000  -0.000000
     3  N    0.000035  -0.032694   0.002209  -0.003635   0.000690
     4  H   -0.000002  -0.006963   0.000927   0.000472   0.001140
     5  C   -0.000161  -0.003355  -0.000146   0.000557  -0.000315
     6  C   -0.001550   0.174528  -0.054168  -0.034798  -0.047975
     7  C    0.000014  -0.000239  -0.001078   0.000331   0.004188
     8  C    0.000002   0.000509   0.000011  -0.000037  -0.000012
     9  C    0.000496   0.029191   0.000914  -0.001597  -0.001167
    10  H   -0.000052  -0.000827  -0.000097  -0.000013   0.000095
    11  H   -0.000129  -0.000032   0.000011   0.000047  -0.000009
    12  C    0.026591  -0.077423  -0.001915  -0.018754   0.022814
    13  C   -0.045143  -0.057090  -0.007484   0.007187   0.000079
    14  C    0.000001   0.001567   0.000112  -0.000138  -0.000334
    15  H   -0.000000  -0.000485  -0.000022   0.000028   0.000167
    16  H    0.000000   0.000079   0.000007  -0.000045  -0.000017
    17  H    0.000000   0.000109   0.000001  -0.000002  -0.000012
    18  C   -0.000000   0.000012   0.000000  -0.000001   0.000000
    19  H    0.000000   0.000001   0.000000  -0.000000  -0.000000
    20  H   -0.000000  -0.000005  -0.000000   0.000001   0.000000
    21  H    0.000000  -0.000005   0.000000  -0.000000   0.000000
    22  C    0.381211  -0.031956   0.008801  -0.011209   0.001943
    23  H   -0.021438   0.015803  -0.009687  -0.001817   0.000717
    24  H   -0.009095  -0.015352  -0.001968   0.001456   0.000230
    25  H    0.503720   0.001988   0.000961   0.000065  -0.000052
    26  C    0.001988   5.264895   0.430606   0.426326   0.387708
    27  H    0.000961   0.430606   0.523096  -0.029451  -0.027668
    28  H    0.000065   0.426326  -0.029451   0.490202  -0.017285
    29  H   -0.000052   0.387708  -0.027668  -0.017285   0.522450
 Mulliken charges:
               1
     1  O   -0.392065
     2  O   -0.179984
     3  N   -0.233400
     4  H    0.280314
     5  C   -0.097587
     6  C    0.278692
     7  C    0.142670
     8  C    0.125652
     9  C   -0.294926
    10  H    0.159690
    11  H    0.167938
    12  C   -0.177338
    13  C    0.153209
    14  C   -0.485650
    15  H    0.142542
    16  H    0.167218
    17  H    0.163936
    18  C   -0.437240
    19  H    0.165413
    20  H    0.178422
    21  H    0.175738
    22  C   -0.493209
    23  H    0.156906
    24  H    0.176332
    25  H    0.153454
    26  C   -0.507762
    27  H    0.166281
    28  H    0.192152
    29  H    0.152599
 Sum of Mulliken charges =  -0.00000
 Mulliken charges with hydrogens summed into heavy atoms:
               1
     1  O   -0.392065
     2  O   -0.179984
     3  N    0.046914
     5  C   -0.097587
     6  C    0.278692
     7  C    0.142670
     8  C    0.125652
     9  C    0.032702
    12  C   -0.177338
    13  C    0.153209
    14  C   -0.011953
    18  C    0.082334
    22  C   -0.006516
    26  C    0.003270
 Electronic spatial extent (au):  <R**2>=           3186.1714
 Charge=              0.0000 electrons
 Dipole moment (field-independent basis, Debye):
    X=             -0.2641    Y=              6.3891    Z=              0.0016  Tot=              6.3945
 Quadrupole moment (field-independent basis, Debye-Ang):
   XX=            -86.6955   YY=            -79.1025   ZZ=            -86.1070
   XY=            -16.2229   XZ=             -3.4026   YZ=             -1.1024
 Traceless Quadrupole moment (field-independent basis, Debye-Ang):
   XX=             -2.7271   YY=              4.8658   ZZ=             -2.1387
   XY=            -16.2229   XZ=             -3.4026   YZ=             -1.1024
 Octapole moment (field-independent basis, Debye-Ang**2):
  XXX=            -42.8802  YYY=             57.4191  ZZZ=              2.2880  XYY=             43.6164
  XXY=             19.6581  XXZ=             -3.6282  XZZ=             -2.3987  YZZ=             -1.8066
  YYZ=              1.3105  XYZ=              4.1784
 Hexadecapole moment (field-independent basis, Debye-Ang**3):
 XXXX=          -2826.9881 YYYY=          -1268.9631 ZZZZ=           -154.8962 XXXY=            -90.4886
 XXXZ=            -32.5126 YYYX=           -110.3464 YYYZ=            -19.1912 ZZZX=              3.7491
 ZZZY=              5.5985 XXYY=           -681.8847 XXZZ=           -490.6367 YYZZ=           -242.4651
 XXYZ=             -6.1904 YYXZ=             -7.7897 ZZXY=             -0.8399
 N-N= 9.004896177815D+02 E-N=-3.277249781060D+03  KE= 6.307997005280D+02
 No NMR shielding tensors so no spin-rotation constants.
 Leave Link  601 at Sat Jan 24 21:59:08 2026, MaxMem=  2147483648 cpu:               1.8 elap:               0.1
 (Enter /data/home/wyx/g16/l9999.exe)
 Electronic transition elements 
                 1             2             3             4             5 
      1  -0.633206D+03 -0.633184D+03 -0.633174D+03 -0.633146D+03 -0.633128D+03
      2   0.163703D+01  0.201858D+00  0.495893D-01  0.548416D+00 -0.339478D+00
      3   0.412507D+00  0.385321D-01 -0.157548D+00 -0.192937D+01  0.136834D+01
      4   0.378880D+00  0.905450D-01 -0.338586D-01 -0.219140D-01 -0.609087D-01
      5  -0.195559D+00 -0.292962D-01 -0.678666D-02 -0.930989D-01  0.685106D-01
      6  -0.522462D-01 -0.614359D-02  0.234029D-01  0.342959D+00 -0.273999D+00
      7  -0.460462D-01 -0.109302D-01  0.173041D-02  0.986051D-03  0.113394D-01
      8  -0.360999D+00  0.736723D+00  0.359866D+00 -0.164580D+00  0.281793D+00
      9  -0.163724D-01  0.519066D-01 -0.898208D+00  0.821377D-01 -0.287064D-01
     10   0.138256D+01  0.582132D+00  0.203389D+00  0.174341D+00 -0.176512D+00
     11  -0.168632D+00 -0.395202D-01 -0.726310D-01 -0.123786D+01  0.437010D+00
     12   0.274922D+00  0.699086D-01  0.362365D-01  0.237681D+00 -0.277812D+00
     13   0.132248D-01 -0.672955D-02 -0.232379D-02 -0.803784D-01 -0.162571D-01
     14   0.529868D+00  0.530255D-01  0.166288D-01 -0.420759D+00  0.127401D+00
     15   0.198784D-01 -0.317859D-02  0.579164D-01 -0.347351D+00  0.132531D+00
     16   0.134202D+00  0.101468D+00  0.269063D-01 -0.758651D-01  0.111519D+00
                 6 
      1  -0.633107D+03
      2  -0.427126D-01
      3   0.243814D+00
      4  -0.639009D-01
      5   0.345211D-02
      6  -0.506798D-01
      7   0.329721D-01
      8  -0.498144D-01
      9   0.456062D-02
     10   0.174211D-01
     11  -0.312427D+00
     12  -0.234800D+00
     13   0.174265D+00
     14   0.813158D-02
     15  -0.101935D+00
     16  -0.106126D+00
 1\1\GINC-CN015\SP\RCAM-B3LYP TD-FC\TZVP\C11H15N1O2\WYX\24-Jan-2026\0\\
 #p CAM-B3LYP TZVP em=gd3bj td(nstates=6,root=2) scrf=(Solvent=Water,Co
 rrectedLR,NonEquilibrium=Save) Geom=Check Guess=Read\\Title Card Requi
 red\\0,1\O,0,2.751427,-1.558562,0.719013\O,0,-3.258428,-1.645069,-1.05
 4801\N,0,-0.699066,1.517043,0.093581\H,0,-1.005316,2.474055,0.029032\C
 ,0,-1.244722,-0.759673,-0.155624\C,0,0.647479,1.301933,0.260181\C,0,-1
 .614499,0.540755,-0.236315\C,0,-2.152913,-1.827403,-0.522681\C,0,0.112
 483,-1.113209,0.404481\H,0,0.019936,-1.45927,1.441882\H,0,0.537635,-1.
 954435,-0.1395\C,0,1.100768,0.02901,0.344807\C,0,2.496203,-0.384727,0.
 459747\C,0,-2.939123,1.076525,-0.657522\H,0,-3.112635,2.068912,-0.2383
 16\H,0,-3.001956,1.158024,-1.743732\H,0,-3.764526,0.439851,-0.350575\C
 ,0,-1.755626,-3.248584,-0.243533\H,0,-2.615211,-3.91627,-0.260681\H,0,
 -1.0514,-3.606649,-0.999397\H,0,-1.259343,-3.370497,0.719669\C,0,3.654
 785,0.554903,0.235611\H,0,3.492126,1.246089,-0.587038\H,0,3.851247,1.1
 38957,1.136057\H,0,4.533589,-0.052217,0.03197\C,0,1.426143,2.580507,0.
 319808\H,0,2.242352,2.537014,1.030873\H,0,1.834675,2.834114,-0.659257\
 H,0,0.773917,3.398872,0.622258\\Version=ES64L-G16RevA.03\State=1-A\HF=
 -633.3310485\RMSD=3.367e-09\Dipole=-0.744473,2.3975156,-0.1641898\Quad
 rupole=-7.8077253,10.7088556,-2.9011303,7.3003978,-3.9364556,1.2612412
 \PG=C01 [X(C11H15N1O2)]\\@


 WE STILL HAVE JUDGEMENT HERE,
 THAT WE TEACH BUT BLOODY INSTRUCTIONS,
 WHICH, BEING TAUGHT,
 RETURN TO PLAGUE THE INVENTOR.
           MACBETH ACT I, SCENE VII
 Job cpu time:       0 days  2 hours 50 minutes 35.1 seconds.
 Elapsed time:       0 days  0 hours 10 minutes 43.1 seconds.
 File lengths (MBytes):  RWF=    735 Int=      0 D2E=      0 Chk=     67 Scr=      1
 Normal termination of Gaussian 16 at Sat Jan 24 21:59:10 2026.
