 Entering Gaussian System, Link 0=g16
 Input=DDL-S2-cLR-1.gjf
 Output=DDL-S2-cLR-1.log
 Initial command:
 /data/home/wyx/g16/l1.exe "/scr/tmp/wyx/13119/Gau-1515982.inp" -scrdir="/scr/tmp/wyx/13119/"
 Entering Link 1 = /data/home/wyx/g16/l1.exe PID=   1515983.
  
 Copyright (c) 1988,1990,1992,1993,1995,1998,2003,2009,2016,
            Gaussian, Inc.  All Rights Reserved.
  
 This is part of the Gaussian(R) 16 program.  It is based on
 the Gaussian(R) 09 system (copyright 2009, Gaussian, Inc.),
 the Gaussian(R) 03 system (copyright 2003, Gaussian, Inc.),
 the Gaussian(R) 98 system (copyright 1998, Gaussian, Inc.),
 the Gaussian(R) 94 system (copyright 1995, Gaussian, Inc.),
 the Gaussian 92(TM) system (copyright 1992, Gaussian, Inc.),
 the Gaussian 90(TM) system (copyright 1990, Gaussian, Inc.),
 the Gaussian 88(TM) system (copyright 1988, Gaussian, Inc.),
 the Gaussian 86(TM) system (copyright 1986, Carnegie Mellon
 University), and the Gaussian 82(TM) system (copyright 1983,
 Carnegie Mellon University). Gaussian is a federally registered
 trademark of Gaussian, Inc.
  
 This software contains proprietary and confidential information,
 including trade secrets, belonging to Gaussian, Inc.
  
 This software is provided under written license and may be
 used, copied, transmitted, or stored only in accord with that
 written license.
  
 The following legend is applicable only to US Government
 contracts under FAR:
  
                    RESTRICTED RIGHTS LEGEND
  
 Use, reproduction and disclosure by the US Government is
 subject to restrictions as set forth in subparagraphs (a)
 and (c) of the Commercial Computer Software - Restricted
 Rights clause in FAR 52.227-19.
  
 Gaussian, Inc.
 340 Quinnipiac St., Bldg. 40, Wallingford CT 06492
  
  
 ---------------------------------------------------------------
 Warning -- This program may not be used in any manner that
 competes with the business of Gaussian, Inc. or will provide
 assistance to any competitor of Gaussian, Inc.  The licensee
 of this program is prohibited from giving any competitor of
 Gaussian, Inc. access to this program.  By using this program,
 the user acknowledges that Gaussian, Inc. is engaged in the
 business of creating and licensing software in the field of
 computational chemistry and represents and warrants to the
 licensee that it is not a competitor of Gaussian, Inc. and that
 it will not use this program in any manner prohibited above.
 ---------------------------------------------------------------
  

 Cite this work as:
 Gaussian 16, Revision A.03,
 M. J. Frisch, G. W. Trucks, H. B. Schlegel, G. E. Scuseria, 
 M. A. Robb, J. R. Cheeseman, G. Scalmani, V. Barone, 
 G. A. Petersson, H. Nakatsuji, X. Li, M. Caricato, A. V. Marenich, 
 J. Bloino, B. G. Janesko, R. Gomperts, B. Mennucci, H. P. Hratchian, 
 J. V. Ortiz, A. F. Izmaylov, J. L. Sonnenberg, D. Williams-Young, 
 F. Ding, F. Lipparini, F. Egidi, J. Goings, B. Peng, A. Petrone, 
 T. Henderson, D. Ranasinghe, V. G. Zakrzewski, J. Gao, N. Rega, 
 G. Zheng, W. Liang, M. Hada, M. Ehara, K. Toyota, R. Fukuda, 
 J. Hasegawa, M. Ishida, T. Nakajima, Y. Honda, O. Kitao, H. Nakai, 
 T. Vreven, K. Throssell, J. A. Montgomery, Jr., J. E. Peralta, 
 F. Ogliaro, M. J. Bearpark, J. J. Heyd, E. N. Brothers, K. N. Kudin, 
 V. N. Staroverov, T. A. Keith, R. Kobayashi, J. Normand, 
 K. Raghavachari, A. P. Rendell, J. C. Burant, S. S. Iyengar, 
 J. Tomasi, M. Cossi, J. M. Millam, M. Klene, C. Adamo, R. Cammi, 
 J. W. Ochterski, R. L. Martin, K. Morokuma, O. Farkas, 
 J. B. Foresman, and D. J. Fox, Gaussian, Inc., Wallingford CT, 2016.
 
 ******************************************
 Gaussian 16:  ES64L-G16RevA.03 25-Dec-2016
                24-Jan-2026 
 ******************************************
 %nprocshared=16
 Will use up to   16 processors via shared memory.
 %mem=16GB
 %oldchk=DDL-LR-1.chk
 %chk=DDL-S2-cLR-1.chk
 Copying data from "DDL-LR-1.chk" to current chk file "DDL-S2-cLR-1.chk"
 IOpt=  2 FromEx=T IUOpen= 4 IOptOp= 5 NList=   0 IFRang= 0 IUIn= 4 IUOut= 2.
 ----------------------------------------------------------------------
 #p CAM-B3LYP TZVP em=gd3bj td(nstates=6,root=2) scrf=(Solvent=Water,Co
 rrectedLR,NonEquilibrium=Save) Geom=Check Guess=Read
 ----------------------------------------------------------------------
 1/29=2,30=1,38=1,172=1/1;
 2/12=2,40=1/2;
 3/5=19,7=101,11=9,14=-4,25=1,30=1,70=9002201,71=1,72=1,74=-40,116=-2,124=41/1,2,3,8;
 4/5=1/1;
 5/5=2,38=6,53=1/2;
 8/6=1,10=1,107=2,108=6/1;
 9/8=2,15=1,41=6,42=1,70=2,73=22/14;
 10/5=4,13=10,28=2,74=20/2;
 6/7=2,8=2,9=2,10=2,22=-1/1;
 99/5=1,9=1/99;
 Leave Link    1 at Sat Jan 24 17:21:46 2026, MaxMem=  2147483648 cpu:               0.8 elap:               0.1
 (Enter /data/home/wyx/g16/l101.exe)
 -------------------
 Title Card Required
 -------------------
 Structure from the checkpoint file:  "DDL-S2-cLR-1.chk"
 Charge =  0 Multiplicity = 1
 Z-Matrix found in chk file.
 O,0,2.766599,-1.550992,0.665639
 O,0,-3.387385,-1.658741,-0.712197
 N,0,-0.654178,1.525183,-0.094329
 H,0,-0.96563,2.47844,-0.182473
 C,0,-1.236912,-0.77698,-0.174805
 C,0,0.66848,1.317689,0.138944
 C,0,-1.607223,0.534477,-0.29697
 C,0,-2.145188,-1.833778,-0.375696
 C,0,0.180041,-1.133566,0.214196
 H,0,0.185317,-1.635938,1.186998
 H,0,0.583039,-1.868097,-0.485539
 C,0,1.133601,0.04126,0.262403
 C,0,2.511494,-0.357793,0.481362
 C,0,-2.954537,1.068516,-0.626412
 H,0,-3.337738,1.708069,0.174446
 H,0,-2.935489,1.662358,-1.544638
 H,0,-3.684434,0.272304,-0.775326
 C,0,-1.833914,-3.296885,-0.214604
 H,0,-2.509524,-3.769833,0.501758
 H,0,-1.945584,-3.82404,-1.16548
 H,0,-0.81506,-3.433568,0.135954
 C,0,3.672851,0.60858,0.477694
 H,0,3.652059,1.289674,-0.369494
 H,0,3.68489,1.20716,1.389248
 H,0,4.587799,0.022296,0.443185
 C,0,1.450273,2.595909,0.223067
 H,0,2.117078,2.612238,1.078673
 H,0,2.046566,2.753478,-0.675211
 H,0,0.772707,3.44258,0.319608
 Recover connectivity data from disk.
 ITRead=  0  0  0  0  0  0  0  0  0  0  0  0  0  0  0  0  0  0  0  0
 ITRead=  0  0  0  0  0  0  0  0  0
 MicOpt= -1 -1 -1 -1 -1 -1 -1 -1 -1 -1 -1 -1 -1 -1 -1 -1 -1 -1 -1 -1
 MicOpt= -1 -1 -1 -1 -1 -1 -1 -1 -1
 NAtoms=     29 NQM=       29 NQMF=       0 NMMI=      0 NMMIF=      0
                NMic=       0 NMicF=      0.
                    Isotopes and Nuclear Properties:
 (Nuclear quadrupole moments (NQMom) in fm**2, nuclear magnetic moments (NMagM)
  in nuclear magnetons)

  Atom         1           2           3           4           5           6           7           8           9          10
 IAtWgt=          16          16          14           1          12          12          12          12          12           1
 AtmWgt=  15.9949146  15.9949146  14.0030740   1.0078250  12.0000000  12.0000000  12.0000000  12.0000000  12.0000000   1.0078250
 NucSpn=           0           0           2           1           0           0           0           0           0           1
 AtZEff=   5.6000000   5.6000000   4.5500000   1.0000000   3.6000000   3.6000000   3.6000000   3.6000000   3.6000000   1.0000000
 NQMom=    0.0000000   0.0000000   2.0440000   0.0000000   0.0000000   0.0000000   0.0000000   0.0000000   0.0000000   0.0000000
 NMagM=    0.0000000   0.0000000   0.4037610   2.7928460   0.0000000   0.0000000   0.0000000   0.0000000   0.0000000   2.7928460
 AtZNuc=   8.0000000   8.0000000   7.0000000   1.0000000   6.0000000   6.0000000   6.0000000   6.0000000   6.0000000   1.0000000

  Atom        11          12          13          14          15          16          17          18          19          20
 IAtWgt=           1          12          12          12           1           1           1          12           1           1
 AtmWgt=   1.0078250  12.0000000  12.0000000  12.0000000   1.0078250   1.0078250   1.0078250  12.0000000   1.0078250   1.0078250
 NucSpn=           1           0           0           0           1           1           1           0           1           1
 AtZEff=   1.0000000   3.6000000   3.6000000   3.6000000   1.0000000   1.0000000   1.0000000   3.6000000   1.0000000   1.0000000
 NQMom=    0.0000000   0.0000000   0.0000000   0.0000000   0.0000000   0.0000000   0.0000000   0.0000000   0.0000000   0.0000000
 NMagM=    2.7928460   0.0000000   0.0000000   0.0000000   2.7928460   2.7928460   2.7928460   0.0000000   2.7928460   2.7928460
 AtZNuc=   1.0000000   6.0000000   6.0000000   6.0000000   1.0000000   1.0000000   1.0000000   6.0000000   1.0000000   1.0000000

  Atom        21          22          23          24          25          26          27          28          29
 IAtWgt=           1          12           1           1           1          12           1           1           1
 AtmWgt=   1.0078250  12.0000000   1.0078250   1.0078250   1.0078250  12.0000000   1.0078250   1.0078250   1.0078250
 NucSpn=           1           0           1           1           1           0           1           1           1
 AtZEff=   1.0000000   3.6000000   1.0000000   1.0000000   1.0000000   3.6000000   1.0000000   1.0000000   1.0000000
 NQMom=    0.0000000   0.0000000   0.0000000   0.0000000   0.0000000   0.0000000   0.0000000   0.0000000   0.0000000
 NMagM=    2.7928460   0.0000000   2.7928460   2.7928460   2.7928460   0.0000000   2.7928460   2.7928460   2.7928460
 AtZNuc=   1.0000000   6.0000000   1.0000000   1.0000000   1.0000000   6.0000000   1.0000000   1.0000000   1.0000000
 Leave Link  101 at Sat Jan 24 17:21:50 2026, MaxMem=  2147483648 cpu:               0.9 elap:               0.3
 (Enter /data/home/wyx/g16/l202.exe)
                          Input orientation:                          
 ---------------------------------------------------------------------
 Center     Atomic      Atomic             Coordinates (Angstroms)
 Number     Number       Type             X           Y           Z
 ---------------------------------------------------------------------
      1          8           0        2.766599   -1.550992    0.665639
      2          8           0       -3.387385   -1.658741   -0.712197
      3          7           0       -0.654178    1.525183   -0.094329
      4          1           0       -0.965630    2.478440   -0.182473
      5          6           0       -1.236912   -0.776980   -0.174805
      6          6           0        0.668480    1.317689    0.138944
      7          6           0       -1.607223    0.534477   -0.296970
      8          6           0       -2.145188   -1.833778   -0.375696
      9          6           0        0.180041   -1.133566    0.214196
     10          1           0        0.185317   -1.635938    1.186998
     11          1           0        0.583039   -1.868097   -0.485539
     12          6           0        1.133601    0.041260    0.262403
     13          6           0        2.511494   -0.357793    0.481362
     14          6           0       -2.954537    1.068516   -0.626412
     15          1           0       -3.337738    1.708069    0.174446
     16          1           0       -2.935489    1.662358   -1.544638
     17          1           0       -3.684434    0.272304   -0.775326
     18          6           0       -1.833914   -3.296885   -0.214604
     19          1           0       -2.509524   -3.769833    0.501758
     20          1           0       -1.945584   -3.824040   -1.165480
     21          1           0       -0.815060   -3.433568    0.135954
     22          6           0        3.672851    0.608580    0.477694
     23          1           0        3.652059    1.289674   -0.369494
     24          1           0        3.684890    1.207160    1.389248
     25          1           0        4.587799    0.022296    0.443185
     26          6           0        1.450273    2.595909    0.223067
     27          1           0        2.117078    2.612238    1.078673
     28          1           0        2.046566    2.753478   -0.675211
     29          1           0        0.772707    3.442580    0.319608
 ---------------------------------------------------------------------
                    Distance matrix (angstroms):
                    1          2          3          4          5
     1  O    0.000000
     2  O    6.307263   0.000000
     3  N    4.662845   4.241409   0.000000
     4  H    5.557441   4.823046   1.006713   0.000000
     5  C    4.163357   2.385545   2.376133   3.266713   0.000000
     6  C    3.592888   5.102315   1.359005   2.030017   2.848964
     7  C    4.940255   2.855100   1.389553   2.050303   1.368201
     8  C    5.028916   1.298816   3.685770   4.474809   1.407887
     9  C    2.658633   3.722975   2.803579   3.810052   1.512029
    10  H    2.634777   4.046191   3.512725   4.486450   2.148267
    11  H    2.488715   3.982395   3.632919   4.624133   2.144601
    12  C    2.316149   4.927389   2.350625   3.247234   2.545584
    13  C    1.234002   6.157420   3.728069   4.535999   3.828423
    14  C    6.423598   2.762725   2.404851   2.478047   2.561258
    15  H    6.937267   3.481955   2.703180   2.519476   3.272753
    16  H    6.908310   3.453530   2.706768   2.530183   3.272916
    17  H    6.856866   1.954778   3.349017   3.551113   2.729833
    18  C    4.998769   2.311793   4.965741   5.840319   2.589965
    19  H    5.726045   2.588636   5.642236   6.472457   3.321814
    20  H    5.542961   2.640601   5.606182   6.453516   3.281498
    21  H    4.080801   3.238244   4.966702   5.922492   2.707765
    22  C    2.349546   7.510228   4.459882   5.044572   5.143083
    23  H    3.150385   7.639658   4.321442   4.771917   5.311403
    24  H    2.995709   7.914956   4.596700   5.070877   5.532378
    25  H    2.416918   8.231911   5.479591   6.104479   5.911684
    26  C    4.373256   6.509969   2.382417   2.452519   4.330779
    27  H    4.233788   7.193580   3.199607   3.333389   4.930239
    28  H    4.565609   6.999776   3.023268   3.064598   4.847243
    29  H    5.388052   6.662917   2.425645   2.050236   4.699755
                    6          7          8          9         10
     6  C    0.000000
     7  C    2.445867   0.000000
     8  C    4.255975   2.429863   0.000000
     9  C    2.500577   2.497593   2.498992   0.000000
    10  H    3.171084   3.182147   2.812900   1.094874   0.000000
    11  H    3.247539   3.256558   2.730653   1.091592   1.734780
    12  C    1.364130   2.840471   3.830587   1.513875   2.137080
    13  C    2.514198   4.285531   4.959614   2.471614   2.746393
    14  C    3.711349   1.486265   3.023444   3.921908   4.523407
    15  H    4.025350   2.143416   3.777501   4.522305   4.961810
    16  H    3.992723   2.143148   3.770142   4.540618   5.299059
    17  H    4.569090   2.147642   2.639046   4.229633   4.739945
    18  C    5.261299   3.838946   1.504501   2.986609   2.966568
    19  H    6.009511   4.469810   2.156612   3.777083   3.505029
    20  H    5.913732   4.457069   2.150522   3.696003   3.855215
    21  H    4.977484   4.069438   2.142511   2.507261   2.310178
    22  C    3.105452   5.337113   6.367336   3.912062   4.207596
    23  H    3.026721   5.313721   6.585140   4.274072   4.795850
    24  H    3.267140   5.594845   6.808241   4.375353   4.513438
    25  H    4.139042   6.260068   7.031976   4.562541   4.762861
    26  C    1.500708   3.724006   5.736548   3.939867   4.520819
    27  H    2.158097   4.481060   6.328440   4.304704   4.668023
    28  H    2.150223   4.291527   6.221208   4.402735   5.118500
    29  H    2.135103   3.808057   6.069391   4.615569   5.185435
                   11         12         13         14         15
    11  H    0.000000
    12  C    2.123247   0.000000
    13  C    2.633411   1.451129   0.000000
    14  C    4.599781   4.307914   5.756650   0.000000
    15  H    5.347620   4.772721   6.210918   1.094187   0.000000
    16  H    5.095669   4.738233   6.152667   1.093686   1.766110
    17  H    4.782951   4.933936   6.353409   1.090357   1.756043
    18  C    2.820727   4.491870   5.291994   4.525716   5.240459
    19  H    3.762353   5.277697   6.070672   4.988028   5.549818
    20  H    3.268328   5.144004   5.881539   5.024508   5.859840
    21  H    2.188980   3.985938   4.543750   5.042551   5.727287
    22  C    4.075375   2.610746   1.510841   6.734453   7.102760
    23  H    4.404982   2.881052   2.176923   6.615287   7.023403
    24  H    4.753263   3.022942   2.156431   6.940036   7.144505
    25  H    4.524844   3.458978   2.111153   7.689307   8.107292
    26  C    4.602344   2.574502   3.149168   4.738871   4.869874
    27  H    4.987328   2.871141   3.055066   5.568812   5.602693
    28  H    4.851478   3.011437   3.351690   5.277548   5.550273
    29  H    5.374712   3.420891   4.182389   4.519235   4.463783
                   16         17         18         19         20
    16  H    0.000000
    17  H    1.756420   0.000000
    18  C    5.251338   4.059303   0.000000
    19  H    5.820471   4.398889   1.092384   0.000000
    20  H    5.587865   4.467198   1.092945   1.760866   0.000000
    21  H    5.769668   4.774644   1.086111   1.765813   1.767564
    22  C    6.990739   7.470795   6.786486   7.575806   7.342680
    23  H    6.701914   7.417808   7.152371   8.020149   7.623468
    24  H    7.255640   7.737330   7.301778   7.995553   7.971314
    25  H    7.952428   8.365232   7.258653   8.047091   7.750303
    26  C    4.819876   5.723735   6.760360   7.502022   7.394299
    27  H    5.771695   6.524580   7.225001   7.903740   7.935182
    28  H    5.173714   6.245847   7.202581   8.043432   7.709823
    29  H    4.516118   5.578139   7.245705   7.926230   7.899263
                   21         22         23         24         25
    21  H    0.000000
    22  C    6.049553   0.000000
    23  H    6.520709   1.087221   0.000000
    24  H    6.584577   1.090584   1.760983   0.000000
    25  H    6.420925   1.087221   1.772654   1.764705   0.000000
    26  C    6.441577   2.992351   2.627782   2.877866   4.063989
    27  H    6.785125   2.606962   2.490488   2.128083   3.635396
    28  H    6.864869   2.928238   2.194036   3.055683   3.894615
    29  H    7.059472   4.058002   3.660674   3.823878   5.125284
                   26         27         28         29
    26  C    0.000000
    27  H    1.084877   0.000000
    28  H    1.089631   1.760974   0.000000
    29  H    1.088700   1.752992   1.757055   0.000000
 Stoichiometry    C11H15NO2
 Framework group  C1[X(C11H15NO2)]
 Deg. of freedom    81
 Full point group                 C1      NOp   1
 RotChk:  IX=0 Diff= 4.50D-16
 Largest Abelian subgroup         C1      NOp   1
 Largest concise Abelian subgroup C1      NOp   1
                         Standard orientation:                         
 ---------------------------------------------------------------------
 Center     Atomic      Atomic             Coordinates (Angstroms)
 Number     Number       Type             X           Y           Z
 ---------------------------------------------------------------------
      1          8           0       -2.256550   -2.313765   -0.078603
      2          8           0        3.675296   -0.180778    0.133859
      3          7           0       -0.067552    1.803322   -0.075878
      4          1           0       -0.102881    2.809404   -0.080539
      5          6           0        1.295340   -0.142423   -0.024780
      6          6           0       -1.250845    1.135392   -0.051758
      7          6           0        1.193277    1.221955   -0.019492
      8          6           0        2.537970   -0.801022    0.040520
      9          6           0        0.052586   -0.997143   -0.130834
     10          1           0        0.067591   -1.563812   -1.067536
     11          1           0        0.053902   -1.752863    0.656858
     12          6           0       -1.248724   -0.228701   -0.041911
     13          6           0       -2.412957   -1.093165    0.013227
     14          6           0        2.299559    2.213003    0.034827
     15          1           0        2.297163    2.863278   -0.845162
     16          1           0        2.221004    2.851554    0.919266
     17          1           0        3.277389    1.732110    0.073153
     18          6           0        2.741677   -2.290856   -0.008671
     19          1           0        3.415231   -2.572698   -0.821194
     20          1           0        3.184685   -2.652585    0.922686
     21          1           0        1.794336   -2.800442   -0.158680
     22          6           0       -3.823741   -0.585410    0.199008
     23          1           0       -3.907895    0.141354    1.003235
     24          1           0       -4.193794   -0.119075   -0.714757
     25          1           0       -4.454231   -1.442226    0.423499
     26          6           0       -2.436201    2.055569   -0.033652
     27          1           0       -3.194949    1.759694   -0.750393
     28          1           0       -2.895850    2.087404    0.953772
     29          1           0       -2.126437    3.068798   -0.284013
 ---------------------------------------------------------------------
 Rotational constants (GHZ):           1.1010127           0.4803272           0.3385797
 Leave Link  202 at Sat Jan 24 17:21:50 2026, MaxMem=  2147483648 cpu:               0.0 elap:               0.0
 (Enter /data/home/wyx/g16/l301.exe)
 Standard basis: TZVP (5D, 7F)
 Ernie: Thresh=  0.10000D-02 Tol=  0.10000D-05 Strict=F.
 There are   370 symmetry adapted cartesian basis functions of A   symmetry.
 There are   356 symmetry adapted basis functions of A   symmetry.
   356 basis functions,   610 primitive gaussians,   370 cartesian basis functions
    52 alpha electrons       52 beta electrons
       nuclear repulsion energy       897.8047055810 Hartrees.
 IExCor=20419 DFT=T Ex+Corr=CAM-B3LYP ExCW=0 ScaHFX=  1.000000
 ScaDFX=  1.000000  1.000000  1.000000  0.810000 ScalE2=  1.000000  1.000000
 IRadAn=      5 IRanWt=     -1 IRanGd=            0 ICorTp=0 IEmpDi=141
 HFx  wShort=  0.000000 wLong=  0.330000 cFull=  0.190000 cShort=  0.000000 cLong=  0.460000
 DFx  wShort=  0.000000 wLong=  0.330000 cFull=  0.190000 cShort=  0.000000 cLong=  0.460000
 NAtoms=   29 NActive=   29 NUniq=   29 SFac= 1.00D+00 NAtFMM=   60 NAOKFM=F Big=F
 Integral buffers will be    131072 words long.
 Raffenetti 1 integral format.
 Two-electron integral symmetry is turned on.
 R6Disp:  Grimme-D3(BJ) Dispersion energy=       -0.0260547091 Hartrees.
 Nuclear repulsion after empirical dispersion term =      897.7786508719 Hartrees.
 ------------------------------------------------------------------------------
 Polarizable Continuum Model (PCM)
 =================================
 Model                : PCM.
 Atomic radii         : UFF (Universal Force Field).
 Polarization charges : Total charges.
 Charge compensation  : None.
 Solution method      : On-the-fly selection.
 Cavity type          : Scaled VdW (van der Waals Surface) (Alpha=1.100).
 Cavity algorithm     : GePol (No added spheres)
                        Default sphere list used, NSphG=   29.
                        Lebedev-Laikov grids with approx.  5.0 points / Ang**2.
                        Smoothing algorithm: York/Karplus (Gamma=1.0000).
                        Polarization charges: spherical gaussians, with
                                              point-specific exponents (IZeta= 3).
                        Self-potential: point-specific (ISelfS= 7).
                        Self-field    : sphere-specific E.n sum rule (ISelfD= 2).
 1st derivatives      : Analytical E(r).r(x)/FMM algorithm (CHGder, D1EAlg=3).
                        Cavity 1st derivative terms included.
 Solvent              : Water, Eps=  78.355300 Eps(inf)=   1.777849
 ------------------------------------------------------------------------------
 GePol: Number of generator spheres                  =      29
 GePol: Total number of spheres                      =      29
 GePol: Number of exposed spheres                    =      29 (100.00%)
 GePol: Number of points                             =    2114
 GePol: Average weight of points                     =       0.13
 GePol: Minimum weight of points                     =   0.30D-09
 GePol: Maximum weight of points                     =    0.20577
 GePol: Number of points with low weight             =     138
 GePol: Fraction of low-weight points (<1% of avg)   =       6.53%
 GePol: Cavity surface area                          =    269.453 Ang**2
 GePol: Cavity volume                                =    286.933 Ang**3
 Leave Link  301 at Sat Jan 24 17:21:51 2026, MaxMem=  2147483648 cpu:               0.6 elap:               0.0
 (Enter /data/home/wyx/g16/l302.exe)
 NPDir=0 NMtPBC=     1 NCelOv=     1 NCel=       1 NClECP=     1 NCelD=      1
         NCelK=      1 NCelE2=     1 NClLst=     1 CellRange=     0.0.
 One-electron integrals computed using PRISM.
 One-electron integral symmetry used in STVInt
 NBasis=   356 RedAO= T EigKep=  3.78D-05  NBF=   356
 NBsUse=   356 1.00D-06 EigRej= -1.00D+00 NBFU=   356
 Precomputing XC quadrature grid using
 IXCGrd= 4 IRadAn=           5 IRanWt=          -1 IRanGd=           0 AccXCQ= 0.00D+00.
 Generated NRdTot=       0 NPtTot=           0 NUsed=           0 NTot=          32
 NSgBfM=   366   366   366   366   366 MxSgAt=    29 MxSgA2=    29.
 Leave Link  302 at Sat Jan 24 17:21:51 2026, MaxMem=  2147483648 cpu:               3.1 elap:               0.2
 (Enter /data/home/wyx/g16/l303.exe)
 DipDrv:  MaxL=1.
 Leave Link  303 at Sat Jan 24 17:21:51 2026, MaxMem=  2147483648 cpu:               0.6 elap:               0.0
 (Enter /data/home/wyx/g16/l308.exe)
 Leave Link  308 at Sat Jan 24 17:21:52 2026, MaxMem=  2147483648 cpu:               0.7 elap:               0.1
 (Enter /data/home/wyx/g16/l401.exe)
 Initial guess from the checkpoint file:  "DDL-S2-cLR-1.chk"
 B after Tr=     0.000000   -0.000000    0.000000
         Rot=    1.000000   -0.000000   -0.000000    0.000000 Ang=   0.00 deg.
 Guess basis will be translated and rotated to current coordinates.
 JPrj=2 DoOrth=T DoCkMO=T.
 Leave Link  401 at Sat Jan 24 17:21:52 2026, MaxMem=  2147483648 cpu:               2.3 elap:               0.2
 (Enter /data/home/wyx/g16/l502.exe)
 Integral symmetry usage will be decided dynamically.
 Closed shell SCF:
 Using DIIS extrapolation, IDIIS=  1040.
 NGot=  2147483648 LenX=  2147200095 LenY=  2147062754
 Requested convergence on RMS density matrix=1.00D-08 within 128 cycles.
 Requested convergence on MAX density matrix=1.00D-06.
 Requested convergence on             energy=1.00D-06.
 No special actions if energy rises.
 Fock matrices will be formed incrementally for  20 cycles.

 Cycle   1  Pass 1  IDiag  1:
 FoFJK:  IHMeth= 1 ICntrl=       0 DoSepK=T KAlg= 0 I1Cent=           0 FoldK=F
 IRaf=         1 NMat=       1 IRICut=       1 DoRegI=T DoRafI=F ISym2E= 0 IDoP0=0 IntGTp=1.
 FoFCou: FMM=F IPFlag=           0 FMFlag=      100000 FMFlg1=           0
         NFxFlg=           0 DoJE=T BraDBF=F KetDBF=F FulRan=T
         wScrn=  0.000000 ICntrl=       500 IOpCl=  0 I1Cent=           0 NGrid=           0
         NMat0=    1 NMatS0=      1 NMatT0=    0 NMatD0=    1 NMtDS0=    0 NMtDT0=    0
 Symmetry not used in FoFCou.
 Inv3:  Mode=1 IEnd=    13406988.
 Iteration    1 A*A^-1 deviation from unit magnitude is 3.22D-15 for    730.
 Iteration    1 A*A^-1 deviation from orthogonality  is 2.35D-15 for   1395    863.
 Iteration    1 A^-1*A deviation from unit magnitude is 3.22D-15 for    730.
 Iteration    1 A^-1*A deviation from orthogonality  is 1.78D-15 for   2005    106.
 E= -633.316734602900    
 DIIS: error= 9.54D-09 at cycle   1 NSaved=   1.
 NSaved= 1 IEnMin= 1 EnMin= -633.316734602900     IErMin= 1 ErrMin= 9.54D-09
 ErrMax= 9.54D-09  0.00D+00 EMaxC= 1.00D-01 BMatC= 2.56D-14 BMatP= 2.56D-14
 IDIUse=1 WtCom= 1.00D+00 WtEn= 0.00D+00
 Coeff-Com:  0.100D+01
 Coeff:      0.100D+01
 Gap=     0.225 Goal=   None    Shift=    0.000
 RMSDP=2.63D-09 MaxDP=1.54D-07              OVMax= 1.03D-07

 Error on total polarization charges =  0.01562
 SCF Done:  E(RCAM-B3LYP) =  -633.316734603     A.U. after    1 cycles
            NFock=  1  Conv=0.26D-08     -V/T= 2.0044
 KE= 6.305579514544D+02 PE=-3.271438748994D+03 EE= 1.109785412065D+03
 Leave Link  502 at Sat Jan 24 17:21:58 2026, MaxMem=  2147483648 cpu:              86.9 elap:               5.7
 (Enter /data/home/wyx/g16/l801.exe)
 DoSCS=F DFT=T ScalE2(SS,OS)=  1.000000  1.000000
 ExpMin= 9.52D-02 ExpMax= 2.70D+04 ExpMxC= 9.22D+02 IAcc=3 IRadAn=         5 AccDes= 0.00D+00
 HarFok:  IExCor=  205 AccDes= 0.00D+00 IRadAn=         5 IDoV=-2 UseB2=F ITyADJ=14
 ICtDFT= 12500011 ScaDFX=  1.000000  1.000000  1.000000  1.000000
 Largest valence mixing into a core orbital is  5.64D-05
 Largest core mixing into a valence orbital is  1.19D-05
 Range of M.O.s used for correlation:    15   356
 NBasis=   356 NAE=    52 NBE=    52 NFC=    14 NFV=     0
 NROrb=    342 NOA=    38 NOB=    38 NVA=   304 NVB=   304

 **** Warning!!: The largest alpha MO coefficient is  0.44623283D+02

 Leave Link  801 at Sat Jan 24 17:21:58 2026, MaxMem=  2147483648 cpu:               1.0 elap:               0.1
 (Enter /data/home/wyx/g16/l914.exe)
 RHF ground state
 Two-electron integrals replicated using symmetry.
 MDV=  2147483648 DFT=T DoStab=F Mixed=T DoRPA=T DoScal=F NonHer=T
 NEqPCM:  Using equilibrium solvation (IEInf=0, Eps=  78.3553, EpsInf=   1.7778)
 Making orbital integer symmetry assigments:
 Orbital symmetries:
       Occupied  (A) (A) (A) (A) (A) (A) (A) (A) (A) (A) (A) (A)
                 (A) (A) (A) (A) (A) (A) (A) (A) (A) (A) (A) (A)
                 (A) (A) (A) (A) (A) (A) (A) (A) (A) (A) (A) (A)
                 (A) (A) (A) (A) (A) (A) (A) (A) (A) (A) (A) (A)
                 (A) (A) (A) (A)
       Virtual   (A) (A) (A) (A) (A) (A) (A) (A) (A) (A) (A) (A)
                 (A) (A) (A) (A) (A) (A) (A) (A) (A) (A) (A) (A)
                 (A) (A) (A) (A) (A) (A) (A) (A) (A) (A) (A) (A)
                 (A) (A) (A) (A) (A) (A) (A) (A) (A) (A) (A) (A)
                 (A) (A) (A) (A) (A) (A) (A) (A) (A) (A) (A) (A)
                 (A) (A) (A) (A) (A) (A) (A) (A) (A) (A) (A) (A)
                 (A) (A) (A) (A) (A) (A) (A) (A) (A) (A) (A) (A)
                 (A) (A) (A) (A) (A) (A) (A) (A) (A) (A) (A) (A)
                 (A) (A) (A) (A) (A) (A) (A) (A) (A) (A) (A) (A)
                 (A) (A) (A) (A) (A) (A) (A) (A) (A) (A) (A) (A)
                 (A) (A) (A) (A) (A) (A) (A) (A) (A) (A) (A) (A)
                 (A) (A) (A) (A) (A) (A) (A) (A) (A) (A) (A) (A)
                 (A) (A) (A) (A) (A) (A) (A) (A) (A) (A) (A) (A)
                 (A) (A) (A) (A) (A) (A) (A) (A) (A) (A) (A) (A)
                 (A) (A) (A) (A) (A) (A) (A) (A) (A) (A) (A) (A)
                 (A) (A) (A) (A) (A) (A) (A) (A) (A) (A) (A) (A)
                 (A) (A) (A) (A) (A) (A) (A) (A) (A) (A) (A) (A)
                 (A) (A) (A) (A) (A) (A) (A) (A) (A) (A) (A) (A)
                 (A) (A) (A) (A) (A) (A) (A) (A) (A) (A) (A) (A)
                 (A) (A) (A) (A) (A) (A) (A) (A) (A) (A) (A) (A)
                 (A) (A) (A) (A) (A) (A) (A) (A) (A) (A) (A) (A)
                 (A) (A) (A) (A) (A) (A) (A) (A) (A) (A) (A) (A)
                 (A) (A) (A) (A) (A) (A) (A) (A) (A) (A) (A) (A)
                 (A) (A) (A) (A) (A) (A) (A) (A) (A) (A) (A) (A)
                 (A) (A) (A) (A) (A) (A) (A) (A) (A) (A) (A) (A)
                 (A) (A) (A) (A)
 PCM Corrected Linear-Response:
 Compute the excitation energies in the ground state reaction field.
    24 initial guesses have been made.
 Convergence on wavefunction:    0.000001000000000
 Davidson Disk Diagonalization:  ConvIn= 1.00D-06 SkipCon=T Conv= 1.00D-06.
 Max sub-space:  2000 roots to seek:    24 dimension of matrix:        23104
 Iteration     1 Dimension    24 NMult     0 NNew     24
 CISAX will form    24 AO SS matrices at one time.
 NMat=    24 NSing=    24 JSym2X= 0.
 FoFJK:  IHMeth= 1 ICntrl=       0 DoSepK=T KAlg= 0 I1Cent=           0 FoldK=F
 IRaf=         1 NMat=      48 IRICut=       1 DoRegI=T DoRafI=F ISym2E= 0 IDoP0=3 IntGTp=3.
 FoFCou: FMM=F IPFlag=           0 FMFlag=      100000 FMFlg1=           0
         NFxFlg=           0 DoJE=F BraDBF=F KetDBF=F FulRan=T
         wScrn=  0.000000 ICntrl=       500 IOpCl=  0 I1Cent=           0 NGrid=           0
         NMat0=   24 NMatS0=     24 NMatT0=    0 NMatD0=   24 NMtDS0=    0 NMtDT0=    0
 Symmetry not used in FoFCou.
 New state      1 was old state      2
 New state      2 was old state      1
 New state      3 was old state      4
 New state      4 was old state      3
 New state      5 was old state      7
 New state      6 was old state      5
 Excitation Energies [eV] at current iteration:
 Root      1 :     3.573354249445988
 Root      2 :     3.757284415915720
 Root      3 :     4.460093670591837
 Root      4 :     5.429964520316594
 Root      5 :     6.353316808847278
 Root      6 :     6.424208851541581
 Root      7 :     6.504576029920064
 Root      8 :     6.646555214704612
 Root      9 :     6.970657856919068
 Root     10 :     7.048087136603018
 Root     11 :     7.220865445419298
 Root     12 :     7.274147665487311
 Root     13 :     7.533805348923372
 Root     14 :     7.587288763038574
 Root     15 :     7.720072514181689
 Root     16 :     7.749825263221031
 Root     17 :     7.876615012661301
 Root     18 :     8.243813950777160
 Root     19 :     8.284408741778869
 Root     20 :     8.419930949997168
 Root     21 :     8.433489466113961
 Root     22 :     8.650567140683464
 Root     23 :     8.724239398073836
 Root     24 :     9.094015300257260
 Iteration     2 Dimension    36 NMult    24 NNew     12
 CISAX will form    12 AO SS matrices at one time.
 NMat=    12 NSing=    12 JSym2X= 0.
 New state      1 was old state      2
 Root      1 not converged, maximum delta is    0.144502306263316
 New state      2 was old state      1
 Root      2 not converged, maximum delta is    0.147843165568951
 Root      3 not converged, maximum delta is    0.092464616601676
 Root      4 not converged, maximum delta is    0.214808667832107
 New state      5 was old state      6
 Root      5 not converged, maximum delta is    0.190835419906857
 New state      6 was old state      5
 Root      6 not converged, maximum delta is    0.066953748323960
 Excitation Energies [eV] at current iteration:
 Root      1 :     3.291966350019327   Change is   -0.465318065896393
 Root      2 :     3.379052554820948   Change is   -0.194301694625040
 Root      3 :     4.227877309476828   Change is   -0.232216361115008
 Root      4 :     5.146816311997553   Change is   -0.283148208319042
 Root      5 :     5.449013125889334   Change is   -0.975195725652248
 Root      6 :     6.212581711583312   Change is   -0.140735097263966
 Iteration     3 Dimension    48 NMult    36 NNew     12
 CISAX will form    12 AO SS matrices at one time.
 NMat=    12 NSing=    12 JSym2X= 0.
 Root      1 not converged, maximum delta is    0.011464384203148
 Root      2 not converged, maximum delta is    0.011550661286564
 Root      3 not converged, maximum delta is    0.018222567410917
 Root      4 not converged, maximum delta is    0.041783301057513
 Root      5 not converged, maximum delta is    0.041684143541764
 Root      6 not converged, maximum delta is    0.014117546630714
 Excitation Energies [eV] at current iteration:
 Root      1 :     3.271955127705172   Change is   -0.020011222314156
 Root      2 :     3.371283168127436   Change is   -0.007769386693512
 Root      3 :     4.215100697745343   Change is   -0.012776611731486
 Root      4 :     5.125014811493016   Change is   -0.021801500504536
 Root      5 :     5.409161984623574   Change is   -0.039851141265760
 Root      6 :     6.204147363100505   Change is   -0.008434348482807
 Iteration     4 Dimension    60 NMult    48 NNew     12
 CISAX will form    12 AO SS matrices at one time.
 NMat=    12 NSing=    12 JSym2X= 0.
 Root      1 not converged, maximum delta is    0.002194310475373
 Root      2 not converged, maximum delta is    0.001227559803546
 Root      3 not converged, maximum delta is    0.001992888974226
 Root      4 not converged, maximum delta is    0.004883894320253
 Root      5 not converged, maximum delta is    0.005504763842464
 Root      6 not converged, maximum delta is    0.005540563355312
 Excitation Energies [eV] at current iteration:
 Root      1 :     3.270445817204748   Change is   -0.001509310500423
 Root      2 :     3.371009571209933   Change is   -0.000273596917503
 Root      3 :     4.214600279057271   Change is   -0.000500418688072
 Root      4 :     5.122584333281189   Change is   -0.002430478211827
 Root      5 :     5.404439596104771   Change is   -0.004722388518802
 Root      6 :     6.203486019914111   Change is   -0.000661343186394
 Iteration     5 Dimension    72 NMult    60 NNew     12
 CISAX will form    12 AO SS matrices at one time.
 NMat=    12 NSing=    12 JSym2X= 0.
 Root      1 not converged, maximum delta is    0.000926537690811
 Root      2 not converged, maximum delta is    0.000226273688904
 Root      3 not converged, maximum delta is    0.000193181297240
 Root      4 not converged, maximum delta is    0.000570316459787
 Root      5 not converged, maximum delta is    0.001458967771159
 Root      6 not converged, maximum delta is    0.001758174516960
 Excitation Energies [eV] at current iteration:
 Root      1 :     3.270340956622664   Change is   -0.000104860582085
 Root      2 :     3.370987282031212   Change is   -0.000022289178722
 Root      3 :     4.214570041847048   Change is   -0.000030237210223
 Root      4 :     5.122423517567637   Change is   -0.000160815713552
 Root      5 :     5.404022846450753   Change is   -0.000416749654017
 Root      6 :     6.203433211664437   Change is   -0.000052808249674
 Iteration     6 Dimension    84 NMult    72 NNew     12
 CISAX will form    12 AO SS matrices at one time.
 NMat=    12 NSing=    12 JSym2X= 0.
 Root      1 not converged, maximum delta is    0.000145438825845
 Root      2 not converged, maximum delta is    0.000078941858417
 Root      3 not converged, maximum delta is    0.000064355957937
 Root      4 not converged, maximum delta is    0.000192200815675
 Root      5 not converged, maximum delta is    0.000512970684910
 Root      6 not converged, maximum delta is    0.000831911401050
 Excitation Energies [eV] at current iteration:
 Root      1 :     3.270334734171002   Change is   -0.000006222451661
 Root      2 :     3.370986222275450   Change is   -0.000001059755762
 Root      3 :     4.214568143609663   Change is   -0.000001898237384
 Root      4 :     5.122411188508169   Change is   -0.000012329059469
 Root      5 :     5.403982526012224   Change is   -0.000040320438530
 Root      6 :     6.203427275725326   Change is   -0.000005935939112
 Iteration     7 Dimension    96 NMult    84 NNew     12
 CISAX will form    12 AO SS matrices at one time.
 NMat=    12 NSing=    12 JSym2X= 0.
 Root      1 not converged, maximum delta is    0.000020004093203
 Root      2 not converged, maximum delta is    0.000016782781140
 Root      3 not converged, maximum delta is    0.000010044711532
 Root      4 not converged, maximum delta is    0.000047477172631
 Root      5 not converged, maximum delta is    0.000118288978917
 Root      6 not converged, maximum delta is    0.000242216897653
 Excitation Energies [eV] at current iteration:
 Root      1 :     3.270334329067838   Change is   -0.000000405103164
 Root      2 :     3.370986159433192   Change is   -0.000000062842258
 Root      3 :     4.214568047459379   Change is   -0.000000096150284
 Root      4 :     5.122410211186790   Change is   -0.000000977321379
 Root      5 :     5.403979065446785   Change is   -0.000003460565439
 Root      6 :     6.203426564414094   Change is   -0.000000711311232
 Iteration     8 Dimension   108 NMult    96 NNew     12
 CISAX will form    12 AO SS matrices at one time.
 NMat=    12 NSing=    12 JSym2X= 0.
 Root      1 not converged, maximum delta is    0.000004650589000
 Root      2 not converged, maximum delta is    0.000003601511299
 Root      3 not converged, maximum delta is    0.000003145650539
 Root      4 not converged, maximum delta is    0.000023949062788
 Root      5 not converged, maximum delta is    0.000038685546074
 Root      6 not converged, maximum delta is    0.000065265481761
 Excitation Energies [eV] at current iteration:
 Root      1 :     3.270334313568932   Change is   -0.000000015498906
 Root      2 :     3.370986156464540   Change is   -0.000000002968652
 Root      3 :     4.214568043330637   Change is   -0.000000004128742
 Root      4 :     5.122410133617837   Change is   -0.000000077568953
 Root      5 :     5.403978811674434   Change is   -0.000000253772350
 Root      6 :     6.203426483966722   Change is   -0.000000080447371
 Iteration     9 Dimension   120 NMult   108 NNew     12
 CISAX will form    12 AO SS matrices at one time.
 NMat=    12 NSing=    12 JSym2X= 0.
 Root      1 has converged.
 Root      2 has converged.
 Root      3 has converged.
 Root      4 not converged, maximum delta is    0.000005961140572
 Root      5 not converged, maximum delta is    0.000010646096493
 Root      6 not converged, maximum delta is    0.000010849107527
 Excitation Energies [eV] at current iteration:
 Root      1 :     3.270334312947135   Change is   -0.000000000621798
 Root      2 :     3.370986156350508   Change is   -0.000000000114033
 Root      3 :     4.214568043187368   Change is   -0.000000000143268
 Root      4 :     5.122410128673728   Change is   -0.000000004944109
 Root      5 :     5.403978796021416   Change is   -0.000000015653017
 Root      6 :     6.203426476003028   Change is   -0.000000007963695
 Iteration    10 Dimension   126 NMult   120 NNew      6
 CISAX will form     6 AO SS matrices at one time.
 NMat=     6 NSing=     6 JSym2X= 0.
 Root      1 has converged.
 Root      2 has converged.
 Root      3 has converged.
 Root      4 not converged, maximum delta is    0.000001176816501
 Root      5 not converged, maximum delta is    0.000002288557359
 Root      6 not converged, maximum delta is    0.000002010415121
 Excitation Energies [eV] at current iteration:
 Root      1 :     3.270334312940398   Change is   -0.000000000006737
 Root      2 :     3.370986156350044   Change is   -0.000000000000463
 Root      3 :     4.214568043187075   Change is   -0.000000000000293
 Root      4 :     5.122410128402988   Change is   -0.000000000270740
 Root      5 :     5.403978795064389   Change is   -0.000000000957028
 Root      6 :     6.203426475399016   Change is   -0.000000000604011
 Iteration    11 Dimension   132 NMult   126 NNew      6
 CISAX will form     6 AO SS matrices at one time.
 NMat=     6 NSing=     6 JSym2X= 0.
 Root      1 has converged.
 Root      2 has converged.
 Root      3 has converged.
 Root      4 has converged.
 Root      5 has converged.
 Root      6 has converged.
 Excitation Energies [eV] at current iteration:
 Root      1 :     3.270334312939945   Change is   -0.000000000000453
 Root      2 :     3.370986156349898   Change is   -0.000000000000147
 Root      3 :     4.214568043186978   Change is   -0.000000000000097
 Root      4 :     5.122410128390309   Change is   -0.000000000012678
 Root      5 :     5.403978795014721   Change is   -0.000000000049668
 Root      6 :     6.203426475353695   Change is   -0.000000000045322
 Convergence achieved on expansion vectors.
 PCM Corrected Linear-Response:
 The state of interest is root number   2
 Excitation energy =    3.3710 eV, Total energy =  -633.192853141    
 Recompute the excitation energies using the linear response reaction field.
 Convergence on wavefunction:    0.000001000000000
 Davidson Disk Diagonalization:  ConvIn= 1.00D-06 SkipCon=T Conv= 1.00D-06.
 Max sub-space:  2000 roots to seek:     6 dimension of matrix:        23104
 Iteration     1 Dimension     6 NMult     0 NNew      6
 CISAX will form     6 AO SS matrices at one time.
 NMat=     6 NSing=     6 JSym2X= 0.
 Excitation Energies [eV] at current iteration:
 Root      1 :     3.342975881651920
 Root      2 :     3.395391059141886
 Root      3 :     4.239646235457685
 Root      4 :     5.181536740164526
 Root      5 :     5.574133174888317
 Root      6 :     6.162592679889952
 Iteration     2 Dimension    18 NMult     6 NNew     12
 CISAX will form    12 AO SS matrices at one time.
 NMat=    12 NSing=    12 JSym2X= 0.
 Root      1 not converged, maximum delta is    0.138070523067438
 Root      2 not converged, maximum delta is    0.152369850531427
 Root      3 not converged, maximum delta is    0.005508654887432
 Root      4 not converged, maximum delta is    0.385440577906234
 Root      5 not converged, maximum delta is    0.410439054764646
 Root      6 not converged, maximum delta is    0.004290952569777
 Excitation Energies [eV] at current iteration:
 Root      1 :     3.114996484497946   Change is   -0.227979397153973
 Root      2 :     3.365212077908820   Change is   -0.030178981233066
 Root      3 :     4.209281779255964   Change is   -0.030364456201722
 Root      4 :     4.933064991446494   Change is   -0.248471748718033
 Root      5 :     5.268483727399770   Change is   -0.305649447488547
 Root      6 :     6.150323213129291   Change is   -0.012269466760661
 Iteration     3 Dimension    30 NMult    18 NNew     12
 CISAX will form    12 AO SS matrices at one time.
 NMat=    12 NSing=    12 JSym2X= 0.
 Root      1 not converged, maximum delta is    0.003113440416118
 Root      2 not converged, maximum delta is    0.000852682414945
 Root      3 not converged, maximum delta is    0.001370723554670
 Root      4 not converged, maximum delta is    0.015318387370662
 Root      5 not converged, maximum delta is    0.012407663160915
 Root      6 not converged, maximum delta is    0.004557539575468
 Excitation Energies [eV] at current iteration:
 Root      1 :     3.111312258258204   Change is   -0.003684226239742
 Root      2 :     3.364973699241612   Change is   -0.000238378667208
 Root      3 :     4.208944287319643   Change is   -0.000337491936319
 Root      4 :     4.920556164202307   Change is   -0.012508827244187
 Root      5 :     5.262261031462621   Change is   -0.006222695937149
 Root      6 :     6.149224309005511   Change is   -0.001098904123780
 Iteration     4 Dimension    42 NMult    30 NNew     12
 CISAX will form    12 AO SS matrices at one time.
 NMat=    12 NSing=    12 JSym2X= 0.
 Root      1 not converged, maximum delta is    0.001977970523830
 Root      2 not converged, maximum delta is    0.000215947725856
 Root      3 not converged, maximum delta is    0.000293475287924
 Root      4 not converged, maximum delta is    0.005751396426298
 Root      5 not converged, maximum delta is    0.003830650713796
 Root      6 not converged, maximum delta is    0.005433151803680
 Excitation Energies [eV] at current iteration:
 Root      1 :     3.110843011450970   Change is   -0.000469246807234
 Root      2 :     3.364964480441747   Change is   -0.000009218799864
 Root      3 :     4.208926107694128   Change is   -0.000018179625515
 Root      4 :     4.917673085672313   Change is   -0.002883078529993
 Root      5 :     5.260963395518403   Change is   -0.001297635944217
 Root      6 :     6.148567641916121   Change is   -0.000656667089391
 Iteration     5 Dimension    54 NMult    42 NNew     12
 CISAX will form    12 AO SS matrices at one time.
 NMat=    12 NSing=    12 JSym2X= 0.
 Root      1 not converged, maximum delta is    0.000412359069118
 Root      2 not converged, maximum delta is    0.000072449134906
 Root      3 not converged, maximum delta is    0.000121197663623
 Root      4 not converged, maximum delta is    0.002135370804367
 Root      5 not converged, maximum delta is    0.001192569131446
 Root      6 not converged, maximum delta is    0.004387345520559
 Excitation Energies [eV] at current iteration:
 Root      1 :     3.110797463119786   Change is   -0.000045548331184
 Root      2 :     3.364963947878207   Change is   -0.000000532563541
 Root      3 :     4.208924680366274   Change is   -0.000001427327854
 Root      4 :     4.917320456307601   Change is   -0.000352629364713
 Root      5 :     5.260836579239002   Change is   -0.000126816279402
 Root      6 :     6.148382422724789   Change is   -0.000185219191332
 Iteration     6 Dimension    66 NMult    54 NNew     12
 CISAX will form    12 AO SS matrices at one time.
 NMat=    12 NSing=    12 JSym2X= 0.
 Root      1 not converged, maximum delta is    0.000085556511891
 Root      2 not converged, maximum delta is    0.000008176543466
 Root      3 not converged, maximum delta is    0.000022331645658
 Root      4 not converged, maximum delta is    0.000487498035158
 Root      5 not converged, maximum delta is    0.000301824893551
 Root      6 not converged, maximum delta is    0.005031020803393
 Excitation Energies [eV] at current iteration:
 Root      1 :     3.110795010411452   Change is   -0.000002452708334
 Root      2 :     3.364963919973891   Change is   -0.000000027904315
 Root      3 :     4.208924574722549   Change is   -0.000000105643725
 Root      4 :     4.917291887241943   Change is   -0.000028569065658
 Root      5 :     5.260825634133992   Change is   -0.000010945105009
 Root      6 :     6.148314547774738   Change is   -0.000067874950051
 Iteration     7 Dimension    78 NMult    66 NNew     12
 CISAX will form    12 AO SS matrices at one time.
 NMat=    12 NSing=    12 JSym2X= 0.
 Root      1 not converged, maximum delta is    0.000012867177999
 Root      2 not converged, maximum delta is    0.000002338991022
 Root      3 not converged, maximum delta is    0.000009850964184
 Root      4 not converged, maximum delta is    0.000084161749863
 Root      5 not converged, maximum delta is    0.000096711314955
 Root      6 not converged, maximum delta is    0.003971466392144
 Excitation Energies [eV] at current iteration:
 Root      1 :     3.110794916984420   Change is   -0.000000093427032
 Root      2 :     3.364963918786573   Change is   -0.000000001187319
 Root      3 :     4.208924566814041   Change is   -0.000000007908509
 Root      4 :     4.917289538674337   Change is   -0.000002348567605
 Root      5 :     5.260824608109290   Change is   -0.000001026024702
 Root      6 :     6.148288225635094   Change is   -0.000026322139645
 Iteration     8 Dimension    90 NMult    78 NNew     12
 CISAX will form    12 AO SS matrices at one time.
 NMat=    12 NSing=    12 JSym2X= 0.
 Root      1 not converged, maximum delta is    0.000003023952996
 Root      2 has converged.
 Root      3 not converged, maximum delta is    0.000002354600019
 Root      4 not converged, maximum delta is    0.000048631981496
 Root      5 not converged, maximum delta is    0.000061430462275
 Root      6 not converged, maximum delta is    0.001320635682067
 Excitation Energies [eV] at current iteration:
 Root      1 :     3.110794912047257   Change is   -0.000000004937163
 Root      2 :     3.364963918717874   Change is   -0.000000000068698
 Root      3 :     4.208924566335298   Change is   -0.000000000478742
 Root      4 :     4.917289379474369   Change is   -0.000000159199969
 Root      5 :     5.260824501657226   Change is   -0.000000106452064
 Root      6 :     6.148282047746724   Change is   -0.000006177888370
 Iteration     9 Dimension   100 NMult    90 NNew     10
 CISAX will form    10 AO SS matrices at one time.
 NMat=    10 NSing=    10 JSym2X= 0.
 Root      1 has converged.
 Root      2 has converged.
 Root      3 has converged.
 Root      4 not converged, maximum delta is    0.000022153682192
 Root      5 not converged, maximum delta is    0.000031264495296
 Root      6 not converged, maximum delta is    0.000259276935911
 Excitation Energies [eV] at current iteration:
 Root      1 :     3.110794911884258   Change is   -0.000000000162999
 Root      2 :     3.364963918716335   Change is   -0.000000000001539
 Root      3 :     4.208924566303872   Change is   -0.000000000031426
 Root      4 :     4.917289366216248   Change is   -0.000000013258120
 Root      5 :     5.260824488266721   Change is   -0.000000013390506
 Root      6 :     6.148281060283534   Change is   -0.000000987463189
 Iteration    10 Dimension   106 NMult   100 NNew      6
 CISAX will form     6 AO SS matrices at one time.
 NMat=     6 NSing=     6 JSym2X= 0.
 Root      1 has converged.
 Root      2 has converged.
 Root      3 has converged.
 Root      4 not converged, maximum delta is    0.000004717387264
 Root      5 not converged, maximum delta is    0.000008058914473
 Root      6 not converged, maximum delta is    0.000047398000195
 Excitation Energies [eV] at current iteration:
 Root      1 :     3.110794911883729   Change is   -0.000000000000529
 Root      2 :     3.364963918715969   Change is   -0.000000000000367
 Root      3 :     4.208924566303325   Change is   -0.000000000000548
 Root      4 :     4.917289365184225   Change is   -0.000000001032023
 Root      5 :     5.260824486728806   Change is   -0.000000001537915
 Root      6 :     6.148280949703314   Change is   -0.000000110580221
 Iteration    11 Dimension   112 NMult   106 NNew      6
 CISAX will form     6 AO SS matrices at one time.
 NMat=     6 NSing=     6 JSym2X= 0.
 Root      1 has converged.
 Root      2 has converged.
 Root      3 has converged.
 Root      4 has converged.
 Root      5 not converged, maximum delta is    0.000001155885489
 Root      6 not converged, maximum delta is    0.000011562790248
 Excitation Energies [eV] at current iteration:
 Root      1 :     3.110794911883729   Change is    0.000000000000000
 Root      2 :     3.364963918715846   Change is   -0.000000000000122
 Root      3 :     4.208924566303110   Change is   -0.000000000000214
 Root      4 :     4.917289365110265   Change is   -0.000000000073960
 Root      5 :     5.260824486594388   Change is   -0.000000000134418
 Root      6 :     6.148280938426865   Change is   -0.000000011276449
 Iteration    12 Dimension   116 NMult   112 NNew      4
 CISAX will form     4 AO SS matrices at one time.
 NMat=     4 NSing=     4 JSym2X= 0.
 Root      1 has converged.
 Root      2 has converged.
 Root      3 has converged.
 Root      4 has converged.
 Root      5 has converged.
 Root      6 not converged, maximum delta is    0.000003719415413
 Excitation Energies [eV] at current iteration:
 Root      1 :     3.110794911883624   Change is   -0.000000000000105
 Root      2 :     3.364963918715822   Change is   -0.000000000000025
 Root      3 :     4.208924566303130   Change is    0.000000000000020
 Root      4 :     4.917289365107640   Change is   -0.000000000002625
 Root      5 :     5.260824486584590   Change is   -0.000000000009798
 Root      6 :     6.148280937462161   Change is   -0.000000000964704
 Iteration    13 Dimension   118 NMult   116 NNew      2
 CISAX will form     2 AO SS matrices at one time.
 NMat=     2 NSing=     2 JSym2X= 0.
 Root      1 has converged.
 Root      2 has converged.
 Root      3 has converged.
 Root      4 has converged.
 Root      5 has converged.
 Root      6 has converged.
 Excitation Energies [eV] at current iteration:
 Root      1 :     3.110794911883571   Change is   -0.000000000000053
 Root      2 :     3.364963918715675   Change is   -0.000000000000147
 Root      3 :     4.208924566303110   Change is   -0.000000000000020
 Root      4 :     4.917289365107640   Change is    0.000000000000000
 Root      5 :     5.260824486584466   Change is   -0.000000000000125
 Root      6 :     6.148280937382752   Change is   -0.000000000079409
 Convergence achieved on expansion vectors.
 ***********************************************************************
 Excited states from <AA,BB:AA,BB> singles matrix:
 ***********************************************************************
 
 1PDM for each excited state written to RWF  633
 Ground to excited state transition densities written to RWF  633
 Ground to excited state transition electric dipole moments (Au):
       state          X           Y           Z        Dip. S.      Osc.
         1        -1.8353     -0.0556     -0.0319      3.3725      0.2570
         2        -0.0941      0.0031     -0.0468      0.0111      0.0009
         3         0.0066     -0.0807      0.0393      0.0081      0.0008
         4         0.0268     -2.1051      0.0478      4.4345      0.5342
         5        -0.3743      1.0474     -0.0094      1.2373      0.1595
         6        -0.0443      0.0390      0.0080      0.0035      0.0005
 Ground to excited state transition velocity dipole moments (Au):
       state          X           Y           Z        Dip. S.      Osc.
         1         0.2049      0.0055      0.0038      0.0420      0.2452
         2         0.0114     -0.0003      0.0048      0.0002      0.0008
         3        -0.0013      0.0119     -0.0024      0.0001      0.0006
         4        -0.0100      0.3613     -0.0070      0.1307      0.4821
         5         0.0670     -0.2025      0.0023      0.0455      0.1569
         6         0.0101     -0.0077     -0.0216      0.0006      0.0018
 Ground to excited state transition magnetic dipole moments (Au):
       state          X           Y           Z
         1         0.0530      0.0107     -1.3829
         2        -0.7035     -0.2698     -0.1125
         3         0.0012     -0.9310     -0.0411
         4         0.0210      0.0570     -0.5717
         5        -0.0698     -0.0557      0.2075
         6         0.0478      0.0178     -0.0221
 Ground to excited state transition velocity quadrupole moments (Au):
       state          XX          YY          ZZ          XY          XZ          YZ
         1         0.4426     -0.1658     -0.0132     -0.4968      0.0262     -0.0050
         2         0.0250     -0.0058      0.0010     -0.0308      0.0430     -0.0224
         3        -0.0153      0.0038     -0.0082     -0.0202      0.0784      0.0048
         4        -1.5790      0.3754      0.0400     -0.3201     -0.0506     -0.0165
         5         0.4913     -0.4266     -0.0243     -0.1295      0.0434     -0.0174
         6        -0.1454     -0.0953      0.0731     -0.0240     -0.0278      0.1057
 <0|del|b> * <b|rxdel|0> + <0|del|b> * <b|delr+rdel|0>
 Rotatory Strengths (R) in cgs (10**-40 erg-esu-cm/Gauss)
       state          XX          YY          ZZ    R(velocity)    E-M Angle
         1       -22.1320     20.1716     37.3865     11.8087       88.84
         2        -1.6867    -24.6781    -21.9159    -16.0936      154.11
         3       -27.0591      0.0963    -23.1252    -16.6960      164.95
         4        88.3307      3.3798      3.8279     31.8461       83.25
         5        37.0339     -9.2332     -1.8412      8.6532       81.53
         6         1.0053      2.3520     -0.7907      0.8555       53.85
 1/2[<0|r|b>*<b|rxdel|0> + (<0|rxdel|b>*<b|r|0>)*]
 Rotatory Strengths (R) in cgs (10**-40 erg-esu-cm/Gauss)
       state          XX          YY          ZZ     R(length)
         1        68.8435      0.4187    -31.1524     12.7033
         2       -46.8111      0.5949     -3.7207    -16.6456
         3        -0.0056    -53.1509      1.1419    -17.3382
         4        -0.3969     84.8728     19.3356     34.6038
         5       -18.4639     41.2687      1.3810      8.0619
         6         1.4960     -0.4926      0.1246      0.3760
  1/2[<0|del|b>*<b|r|0> + (<0|r|b>*<b|del|0>)*] (Au)
       state          X           Y           Z        Dip. S.   Osc.(frdel)
         1        -0.3761     -0.0003     -0.0001      0.3765      0.2510
         2        -0.0011     -0.0000     -0.0002      0.0013      0.0009
         3        -0.0000     -0.0010     -0.0001      0.0011      0.0007
         4        -0.0003     -0.7605     -0.0003      0.7611      0.5074
         5        -0.0251     -0.2121     -0.0000      0.2372      0.1581
         6        -0.0004     -0.0003     -0.0002      0.0009      0.0006

 Excitation energies and oscillator strengths:
 
 Excited State   1:      Singlet-A      3.1108 eV  398.56 nm  f=0.2570  <S**2>=0.000
      52 -> 53         0.69917
 
 Excited State   2:      Singlet-A      3.3650 eV  368.46 nm  f=0.0009  <S**2>=0.000
      51 -> 53         0.63666
      51 -> 54        -0.26472
 This state for optimization and/or second-order correction.
 Total Energy, E(TD-HF/TD-DFT) =  -633.193074454    
 Copying the excited state density for this state as the 1-particle RhoCI density.
 
 Excited State   3:      Singlet-A      4.2089 eV  294.57 nm  f=0.0008  <S**2>=0.000
      50 -> 53         0.52236
      50 -> 54         0.42959
      50 -> 58         0.11906
 
 Excited State   4:      Singlet-A      4.9173 eV  252.14 nm  f=0.5342  <S**2>=0.000
      49 -> 53        -0.21749
      52 -> 54         0.66508
 
 Excited State   5:      Singlet-A      5.2608 eV  235.67 nm  f=0.1595  <S**2>=0.000
      49 -> 53         0.65687
      52 -> 54         0.21715
 
 Excited State   6:      Singlet-A      6.1483 eV  201.66 nm  f=0.0005  <S**2>=0.000
      52 -> 55         0.66209
      52 -> 56         0.12532
      52 -> 61        -0.12322
 SavETr:  write IOETrn=   770 NScale= 10 NData=  16 NLR=1 NState=    6 LETran=     118.
 The selected state is a singlet.
 CISGrd: IGrad=1 NXY=2 DFT=T
 CISAX will form     1 AO SS matrices at one time.
 NMat=     1 NSing=     1 JSym2X= 0.
 Leave Link  914 at Sat Jan 24 17:30:54 2026, MaxMem=  2147483648 cpu:            8538.0 elap:             535.6
 (Enter /data/home/wyx/g16/l1002.exe)
 Minotr:  Closed shell wavefunction.
          Computing CIS/TDA/TD derivatives.
          Using Z-Vector for PSCF gradient.
          Skipping F1 and S1 gradient terms here.
 NEqPCM:  Using equilibrium solvation (IEInf=0, Eps=  78.3553, EpsInf=   1.7778)
          Frozen-core window.
          Direct CPHF calculation.
          Differentiating once with respect to electric field.
                with respect to dipole field.
          Electric field/nuclear overlap derivatives assumed to be zero.
          Requested convergence is 1.0D-10 RMS, and 1.0D-09 maximum.
          NewPWx=F KeepS1=T KeepF1=T KeepIn=T MapXYZ=F SortEE=F KeepMc=T.
 Two-electron integral symmetry used by symmetrizing perturbed Fock matrices.
          MDV=    2147483648 using IRadAn=       5.
          Solving linear equations separately, MaxMat=     384.
          There are     1 degrees of freedom in the 1st order CPHF.  IDoFFX=0 NUNeed=     1.
 FoFJK:  IHMeth= 1 ICntrl=       0 DoSepK=T KAlg= 0 I1Cent=           0 FoldK=F
 IRaf=         1 NMat=       1 IRICut=       1 DoRegI=T DoRafI=F ISym2E=-1 IDoP0=0 IntGTp=1.
 FoFCou: FMM=F IPFlag=           0 FMFlag=      100000 FMFlg1=           0
         NFxFlg=           0 DoJE=T BraDBF=F KetDBF=F FulRan=T
         wScrn=  0.000000 ICntrl=       500 IOpCl=  0 I1Cent=           0 NGrid=           0
         NMat0=    1 NMatS0=      1 NMatT0=    0 NMatD0=    1 NMtDS0=    0 NMtDT0=    0
 Petite list used in FoFCou.
 LinEq1:  Iter=  0 NonCon=     1 RMS=1.01D-02 Max=4.54D-01 NDo=     1
 AX will form     1 AO Fock derivatives at one time.
 LinEq1:  Iter=  1 NonCon=     1 RMS=2.50D-03 Max=9.25D-02 NDo=     1
 LinEq1:  Iter=  2 NonCon=     1 RMS=1.57D-03 Max=7.74D-02 NDo=     1
 LinEq1:  Iter=  3 NonCon=     1 RMS=6.94D-04 Max=4.00D-02 NDo=     1
 LinEq1:  Iter=  4 NonCon=     1 RMS=3.48D-04 Max=1.54D-02 NDo=     1
 LinEq1:  Iter=  5 NonCon=     1 RMS=1.80D-04 Max=8.04D-03 NDo=     1
 LinEq1:  Iter=  6 NonCon=     1 RMS=8.52D-05 Max=2.82D-03 NDo=     1
 LinEq1:  Iter=  7 NonCon=     1 RMS=5.14D-05 Max=2.40D-03 NDo=     1
 LinEq1:  Iter=  8 NonCon=     1 RMS=2.18D-05 Max=6.89D-04 NDo=     1
 LinEq1:  Iter=  9 NonCon=     1 RMS=1.58D-05 Max=6.46D-04 NDo=     1
 LinEq1:  Iter= 10 NonCon=     1 RMS=6.71D-06 Max=1.37D-04 NDo=     1
 LinEq1:  Iter= 11 NonCon=     1 RMS=4.12D-06 Max=1.57D-04 NDo=     1
 LinEq1:  Iter= 12 NonCon=     1 RMS=1.49D-06 Max=3.68D-05 NDo=     1
 LinEq1:  Iter= 13 NonCon=     1 RMS=7.00D-07 Max=2.25D-05 NDo=     1
 LinEq1:  Iter= 14 NonCon=     1 RMS=2.63D-07 Max=1.34D-05 NDo=     1
 LinEq1:  Iter= 15 NonCon=     1 RMS=1.42D-07 Max=7.29D-06 NDo=     1
 LinEq1:  Iter= 16 NonCon=     1 RMS=6.27D-08 Max=3.01D-06 NDo=     1
 LinEq1:  Iter= 17 NonCon=     1 RMS=1.98D-08 Max=4.25D-07 NDo=     1
 LinEq1:  Iter= 18 NonCon=     1 RMS=8.54D-09 Max=1.47D-07 NDo=     1
 LinEq1:  Iter= 19 NonCon=     1 RMS=2.31D-09 Max=4.27D-08 NDo=     1
 LinEq1:  Iter= 20 NonCon=     1 RMS=5.97D-10 Max=1.33D-08 NDo=     1
 LinEq1:  Iter= 21 NonCon=     1 RMS=2.72D-10 Max=6.23D-09 NDo=     1
 LinEq1:  Iter= 22 NonCon=     1 RMS=8.85D-11 Max=2.76D-09 NDo=     1
 LinEq1:  Iter= 23 NonCon=     0 RMS=2.31D-11 Max=4.97D-10 NDo=     1
 Linear equations converged to 1.000D-10 1.000D-09 after    23 iterations.
 PCM Corrected Linear-Response - Equilibrium solvation:
 Corrected transition energy               =    3.2599          eV
 Total energy after correction             = -633.196935826     a.u.
 NEqPCM:  Using non-equilibrium solvation (IEInf=1, Eps=  78.3553, EpsInf=   1.7778)
 Inv3:  Mode=1 IEnd=    13406988.
 Iteration    1 A*A^-1 deviation from unit magnitude is 3.77D-15 for   1405.
 Iteration    1 A*A^-1 deviation from orthogonality  is 1.83D-15 for   1909    125.
 Iteration    1 A^-1*A deviation from unit magnitude is 3.55D-15 for    168.
 Iteration    1 A^-1*A deviation from orthogonality  is 1.89D-15 for   2005    106.
 NEqSol: Computing the dynamic-inertial partition of the PCM polarization charges.
 End of Minotr F.D. properties file   721 does not exist.
 End of Minotr F.D. properties file   722 does not exist.
 End of Minotr F.D. properties file   788 does not exist.
 Leave Link 1002 at Sat Jan 24 17:33:23 2026, MaxMem=  2147483648 cpu:            1907.5 elap:             146.8
 (Enter /data/home/wyx/g16/l601.exe)
 Copying SCF densities to generalized density rwf, IOpCl= 0 IROHF=0.

 **********************************************************************

            Population analysis using the CI density.

 **********************************************************************

 Orbital symmetries:
       Occupied  (A) (A) (A) (A) (A) (A) (A) (A) (A) (A) (A) (A)
                 (A) (A) (A) (A) (A) (A) (A) (A) (A) (A) (A) (A)
                 (A) (A) (A) (A) (A) (A) (A) (A) (A) (A) (A) (A)
                 (A) (A) (A) (A) (A) (A) (A) (A) (A) (A) (A) (A)
                 (A) (A) (A) (A)
       Virtual   (A) (A) (A) (A) (A) (A) (A) (A) (A) (A) (A) (A)
                 (A) (A) (A) (A) (A) (A) (A) (A) (A) (A) (A) (A)
                 (A) (A) (A) (A) (A) (A) (A) (A) (A) (A) (A) (A)
                 (A) (A) (A) (A) (A) (A) (A) (A) (A) (A) (A) (A)
                 (A) (A) (A) (A) (A) (A) (A) (A) (A) (A) (A) (A)
                 (A) (A) (A) (A) (A) (A) (A) (A) (A) (A) (A) (A)
                 (A) (A) (A) (A) (A) (A) (A) (A) (A) (A) (A) (A)
                 (A) (A) (A) (A) (A) (A) (A) (A) (A) (A) (A) (A)
                 (A) (A) (A) (A) (A) (A) (A) (A) (A) (A) (A) (A)
                 (A) (A) (A) (A) (A) (A) (A) (A) (A) (A) (A) (A)
                 (A) (A) (A) (A) (A) (A) (A) (A) (A) (A) (A) (A)
                 (A) (A) (A) (A) (A) (A) (A) (A) (A) (A) (A) (A)
                 (A) (A) (A) (A) (A) (A) (A) (A) (A) (A) (A) (A)
                 (A) (A) (A) (A) (A) (A) (A) (A) (A) (A) (A) (A)
                 (A) (A) (A) (A) (A) (A) (A) (A) (A) (A) (A) (A)
                 (A) (A) (A) (A) (A) (A) (A) (A) (A) (A) (A) (A)
                 (A) (A) (A) (A) (A) (A) (A) (A) (A) (A) (A) (A)
                 (A) (A) (A) (A) (A) (A) (A) (A) (A) (A) (A) (A)
                 (A) (A) (A) (A) (A) (A) (A) (A) (A) (A) (A) (A)
                 (A) (A) (A) (A) (A) (A) (A) (A) (A) (A) (A) (A)
                 (A) (A) (A) (A) (A) (A) (A) (A) (A) (A) (A) (A)
                 (A) (A) (A) (A) (A) (A) (A) (A) (A) (A) (A) (A)
                 (A) (A) (A) (A) (A) (A) (A) (A) (A) (A) (A) (A)
                 (A) (A) (A) (A) (A) (A) (A) (A) (A) (A) (A) (A)
                 (A) (A) (A) (A) (A) (A) (A) (A) (A) (A) (A) (A)
                 (A) (A) (A) (A)
 The electronic state is 1-A.
 Alpha  occ. eigenvalues --  -19.17749 -19.16462 -14.44614 -10.33469 -10.33331
 Alpha  occ. eigenvalues --  -10.32833 -10.32499 -10.25765 -10.25502 -10.25243
 Alpha  occ. eigenvalues --  -10.25188 -10.24131 -10.24105 -10.24074  -1.11673
 Alpha  occ. eigenvalues --   -1.08422  -1.07555  -0.91550  -0.90623  -0.83952
 Alpha  occ. eigenvalues --   -0.82466  -0.81464  -0.78832  -0.74376  -0.71704
 Alpha  occ. eigenvalues --   -0.69319  -0.62130  -0.58444  -0.56953  -0.55136
 Alpha  occ. eigenvalues --   -0.54708  -0.54193  -0.52314  -0.51794  -0.50651
 Alpha  occ. eigenvalues --   -0.49582  -0.49298  -0.48949  -0.48477  -0.48138
 Alpha  occ. eigenvalues --   -0.46561  -0.45774  -0.44479  -0.43701  -0.42982
 Alpha  occ. eigenvalues --   -0.42438  -0.41618  -0.40561  -0.32931  -0.32245
 Alpha  occ. eigenvalues --   -0.30614  -0.26353
 Alpha virt. eigenvalues --   -0.03852   0.01758   0.06605   0.08481   0.08739
 Alpha virt. eigenvalues --    0.10165   0.10957   0.11409   0.12680   0.13185
 Alpha virt. eigenvalues --    0.14889   0.15033   0.15537   0.16712   0.17115
 Alpha virt. eigenvalues --    0.17473   0.17537   0.17798   0.18576   0.19440
 Alpha virt. eigenvalues --    0.19928   0.20063   0.22364   0.23057   0.24411
 Alpha virt. eigenvalues --    0.24533   0.24995   0.25543   0.25836   0.26191
 Alpha virt. eigenvalues --    0.27420   0.28064   0.28487   0.29244   0.29661
 Alpha virt. eigenvalues --    0.30992   0.31405   0.33650   0.33925   0.34766
 Alpha virt. eigenvalues --    0.35487   0.35905   0.36888   0.37039   0.37528
 Alpha virt. eigenvalues --    0.39987   0.40819   0.41205   0.42390   0.43071
 Alpha virt. eigenvalues --    0.44078   0.44992   0.45401   0.46271   0.46510
 Alpha virt. eigenvalues --    0.47330   0.47891   0.48188   0.48521   0.49002
 Alpha virt. eigenvalues --    0.49387   0.49904   0.50680   0.51598   0.51910
 Alpha virt. eigenvalues --    0.52208   0.52978   0.53035   0.53820   0.54148
 Alpha virt. eigenvalues --    0.54554   0.55607   0.55981   0.57729   0.57935
 Alpha virt. eigenvalues --    0.58692   0.59167   0.60655   0.62463   0.62906
 Alpha virt. eigenvalues --    0.63156   0.64999   0.66337   0.66793   0.67456
 Alpha virt. eigenvalues --    0.67674   0.68627   0.71214   0.71674   0.71923
 Alpha virt. eigenvalues --    0.73433   0.75567   0.76979   0.77538   0.78611
 Alpha virt. eigenvalues --    0.80316   0.81529   0.84304   0.88043   0.90210
 Alpha virt. eigenvalues --    0.93088   0.96533   1.00280   1.02684   1.20139
 Alpha virt. eigenvalues --    1.22626   1.23988   1.27097   1.29951   1.31277
 Alpha virt. eigenvalues --    1.31873   1.33333   1.34328   1.35196   1.36898
 Alpha virt. eigenvalues --    1.37570   1.37952   1.39502   1.39761   1.39874
 Alpha virt. eigenvalues --    1.40458   1.40735   1.41144   1.41252   1.41771
 Alpha virt. eigenvalues --    1.42867   1.43100   1.44341   1.44905   1.45868
 Alpha virt. eigenvalues --    1.48527   1.49671   1.50062   1.50925   1.51379
 Alpha virt. eigenvalues --    1.51940   1.52678   1.54748   1.57256   1.57590
 Alpha virt. eigenvalues --    1.59342   1.59995   1.60076   1.61092   1.61621
 Alpha virt. eigenvalues --    1.62065   1.62440   1.62965   1.63637   1.64658
 Alpha virt. eigenvalues --    1.65415   1.66003   1.66157   1.67021   1.67906
 Alpha virt. eigenvalues --    1.68949   1.69071   1.69788   1.71199   1.72723
 Alpha virt. eigenvalues --    1.73078   1.74175   1.75859   1.76075   1.80214
 Alpha virt. eigenvalues --    1.81775   1.83148   1.84460   1.84895   1.85702
 Alpha virt. eigenvalues --    1.85907   1.86405   1.89842   1.90271   1.90783
 Alpha virt. eigenvalues --    1.91604   1.92820   1.97174   1.98549   2.01440
 Alpha virt. eigenvalues --    2.02332   2.04878   2.06374   2.07840   2.10064
 Alpha virt. eigenvalues --    2.10430   2.13443   2.14966   2.18908   2.20090
 Alpha virt. eigenvalues --    2.20581   2.23337   2.24233   2.25040   2.26216
 Alpha virt. eigenvalues --    2.27602   2.29223   2.30048   2.31801   2.33183
 Alpha virt. eigenvalues --    2.33919   2.34298   2.35824   2.38189   2.38683
 Alpha virt. eigenvalues --    2.39963   2.41435   2.42788   2.43789   2.45733
 Alpha virt. eigenvalues --    2.46774   2.47666   2.49302   2.49881   2.50936
 Alpha virt. eigenvalues --    2.53123   2.54350   2.55222   2.56296   2.57213
 Alpha virt. eigenvalues --    2.58073   2.58865   2.61518   2.62511   2.63156
 Alpha virt. eigenvalues --    2.63816   2.64801   2.65323   2.66384   2.68178
 Alpha virt. eigenvalues --    2.68689   2.71242   2.73685   2.74431   2.75317
 Alpha virt. eigenvalues --    2.76388   2.76747   2.77333   2.78261   2.78920
 Alpha virt. eigenvalues --    2.80294   2.81202   2.82958   2.83769   2.84890
 Alpha virt. eigenvalues --    2.85583   2.88048   2.89226   2.91148   2.92921
 Alpha virt. eigenvalues --    2.98165   2.98831   2.99293   3.03990   3.08466
 Alpha virt. eigenvalues --    3.11347   3.12699   3.14942   3.17903   3.20134
 Alpha virt. eigenvalues --    3.21459   3.22286   3.25186   3.25807   3.26498
 Alpha virt. eigenvalues --    3.29542   3.30900   3.31150   3.35486   3.37832
 Alpha virt. eigenvalues --    3.38885   3.39663   3.39949   3.40235   3.41287
 Alpha virt. eigenvalues --    3.42462   3.43918   3.45138   3.46586   3.49242
 Alpha virt. eigenvalues --    3.51309   3.52566   3.54972   3.57154   3.59795
 Alpha virt. eigenvalues --    3.62571   3.92185   4.00105   4.28139   4.35603
 Alpha virt. eigenvalues --   21.64462  21.76193  22.04521  22.10334  22.11902
 Alpha virt. eigenvalues --   22.12819  22.16075  22.19083  22.20675  22.26484
 Alpha virt. eigenvalues --   22.30959  31.92921  43.64575  43.67844
          Condensed to atoms (all electrons):
               1          2          3          4          5          6
     1  O    7.974359   0.000000  -0.000223   0.000018   0.019287   0.016132
     2  O    0.000000   8.055924   0.000738   0.000034  -0.062017   0.000374
     3  N   -0.000223   0.000738   6.350530   0.370373  -0.065405   0.439129
     4  H    0.000018   0.000034   0.370373   0.402380   0.011616  -0.041213
     5  C    0.019287  -0.062017  -0.065405   0.011616   5.914167  -0.056764
     6  C    0.016132   0.000374   0.439129  -0.041213  -0.056764   5.524889
     7  C    0.000090   0.012728   0.274818  -0.045304   0.351613  -0.120564
     8  C   -0.000240   0.234620   0.011355  -0.001585   0.414830   0.023907
     9  C   -0.006888   0.014765   0.018805   0.001230  -0.477993  -0.121250
    10  H    0.007499  -0.000233   0.002179   0.000016  -0.034561  -0.006838
    11  H    0.011042  -0.000183  -0.000609   0.000008  -0.115855   0.021521
    12  C   -0.266903  -0.001430  -0.124356   0.019247   0.192152  -0.101228
    13  C    0.745037   0.000038  -0.002501   0.000555   0.066755   0.122903
    14  C   -0.000016  -0.011843  -0.049244   0.002061  -0.027184  -0.003661
    15  H    0.000000  -0.001393   0.002394   0.000070  -0.001368  -0.000354
    16  H    0.000000  -0.000863   0.002999  -0.000168  -0.011361   0.002476
    17  H    0.000000   0.017240   0.004066   0.000799   0.051818  -0.001115
    18  C   -0.000316  -0.055255  -0.000220   0.000013   0.005679  -0.002670
    19  H   -0.000000   0.006512  -0.000009  -0.000001  -0.010485   0.000130
    20  H    0.000003   0.004665  -0.000005  -0.000001  -0.003771  -0.000011
    21  H    0.000852   0.003411  -0.000011  -0.000001   0.004158  -0.000516
    22  C   -0.121341   0.000000   0.000240   0.000108   0.000608  -0.010331
    23  H    0.004113  -0.000000   0.000073  -0.000052  -0.000387  -0.023902
    24  H    0.002492  -0.000000   0.000121  -0.000016  -0.000087   0.008833
    25  H    0.010929  -0.000000   0.000025  -0.000003  -0.000092  -0.001685
    26  C    0.000837   0.000007  -0.027985  -0.011158  -0.000641   0.201685
    27  H   -0.000158  -0.000000  -0.000426   0.000912   0.000165  -0.045260
    28  H   -0.000033   0.000000  -0.003827   0.000595   0.000643  -0.039944
    29  H    0.000021  -0.000000   0.003682   0.002308  -0.000507  -0.051754
               7          8          9         10         11         12
     1  O    0.000090  -0.000240  -0.006888   0.007499   0.011042  -0.266903
     2  O    0.012728   0.234620   0.014765  -0.000233  -0.000183  -0.001430
     3  N    0.274818   0.011355   0.018805   0.002179  -0.000609  -0.124356
     4  H   -0.045304  -0.001585   0.001230   0.000016   0.000008   0.019247
     5  C    0.351613   0.414830  -0.477993  -0.034561  -0.115855   0.192152
     6  C   -0.120564   0.023907  -0.121250  -0.006838   0.021521  -0.101228
     7  C    5.480307  -0.122529  -0.103803  -0.003822   0.010735  -0.020236
     8  C   -0.122529   5.372056  -0.039830  -0.010159   0.004039  -0.022144
     9  C   -0.103803  -0.039830   6.374398   0.416275   0.528382  -0.100261
    10  H   -0.003822  -0.010159   0.416275   0.554646  -0.046166  -0.025606
    11  H    0.010735   0.004039   0.528382  -0.046166   0.531274  -0.092329
    12  C   -0.020236  -0.022144  -0.100261  -0.025606  -0.092329   7.535935
    13  C    0.020748  -0.004991  -0.214109  -0.003495  -0.001226  -0.518557
    14  C    0.224924  -0.076261   0.027615  -0.000670  -0.000043   0.002753
    15  H   -0.050601   0.005366  -0.003496   0.000178  -0.000029   0.001314
    16  H   -0.050247   0.006846   0.000626  -0.000063   0.000095  -0.001845
    17  H   -0.080298  -0.055731   0.002486  -0.000035  -0.000013   0.000256
    18  C    0.010440   0.216096  -0.031279  -0.004374  -0.010206   0.012768
    19  H    0.001449  -0.048569   0.000453  -0.000509   0.000859  -0.001275
    20  H   -0.001522  -0.054903  -0.001356   0.000768  -0.000596   0.000678
    21  H    0.004681  -0.066926   0.001019  -0.003448  -0.003219   0.001003
    22  C    0.001007  -0.000022   0.017752   0.001618   0.000160  -0.313694
    23  H   -0.000027   0.000002   0.001664  -0.000156   0.000022   0.050975
    24  H   -0.000023  -0.000003  -0.002476   0.000164  -0.000131   0.002074
    25  H    0.000010   0.000001   0.000111  -0.000094  -0.000044   0.029063
    26  C    0.005880   0.000629   0.021061  -0.000430   0.000014  -0.091155
    27  H   -0.000953   0.000004   0.000565  -0.000071   0.000029   0.000404
    28  H   -0.000784  -0.000025  -0.001470   0.000003   0.000041  -0.015164
    29  H    0.003854  -0.000007  -0.000998   0.000049  -0.000011   0.022842
              13         14         15         16         17         18
     1  O    0.745037  -0.000016   0.000000   0.000000   0.000000  -0.000316
     2  O    0.000038  -0.011843  -0.001393  -0.000863   0.017240  -0.055255
     3  N   -0.002501  -0.049244   0.002394   0.002999   0.004066  -0.000220
     4  H    0.000555   0.002061   0.000070  -0.000168   0.000799   0.000013
     5  C    0.066755  -0.027184  -0.001368  -0.011361   0.051818   0.005679
     6  C    0.122903  -0.003661  -0.000354   0.002476  -0.001115  -0.002670
     7  C    0.020748   0.224924  -0.050601  -0.050247  -0.080298   0.010440
     8  C   -0.004991  -0.076261   0.005366   0.006846  -0.055731   0.216096
     9  C   -0.214109   0.027615  -0.003496   0.000626   0.002486  -0.031279
    10  H   -0.003495  -0.000670   0.000178  -0.000063  -0.000035  -0.004374
    11  H   -0.001226  -0.000043  -0.000029   0.000095  -0.000013  -0.010206
    12  C   -0.518557   0.002753   0.001314  -0.001845   0.000256   0.012768
    13  C    5.531708  -0.000072   0.000007  -0.000030   0.000028   0.000725
    14  C   -0.000072   5.171555   0.404972   0.399360   0.441622  -0.000794
    15  H    0.000007   0.404972   0.562154  -0.050257  -0.023476   0.000122
    16  H   -0.000030   0.399360  -0.050257   0.563775  -0.016643   0.000005
    17  H    0.000028   0.441622  -0.023476  -0.016643   0.479948  -0.000632
    18  C    0.000725  -0.000794   0.000122   0.000005  -0.000632   5.070653
    19  H   -0.000040  -0.000305  -0.000071   0.000045   0.000250   0.393504
    20  H    0.000002   0.000030   0.000037  -0.000065  -0.000104   0.404722
    21  H    0.001345   0.000024  -0.000007   0.000007   0.000019   0.424349
    22  C    0.328552   0.000019   0.000002  -0.000003   0.000000   0.000011
    23  H   -0.075117   0.000002  -0.000000   0.000001   0.000000   0.000001
    24  H   -0.039709  -0.000000   0.000000  -0.000000  -0.000000  -0.000000
    25  H   -0.048714   0.000000  -0.000000   0.000000  -0.000000   0.000000
    26  C   -0.051666  -0.000400  -0.000539   0.000460   0.000025  -0.000021
    27  H   -0.007374   0.000018  -0.000029   0.000025  -0.000000  -0.000000
    28  H    0.006256  -0.000062   0.000037  -0.000072  -0.000001  -0.000000
    29  H    0.000132   0.000423   0.000058  -0.000055  -0.000005   0.000001
              19         20         21         22         23         24
     1  O   -0.000000   0.000003   0.000852  -0.121341   0.004113   0.002492
     2  O    0.006512   0.004665   0.003411   0.000000  -0.000000  -0.000000
     3  N   -0.000009  -0.000005  -0.000011   0.000240   0.000073   0.000121
     4  H   -0.000001  -0.000001  -0.000001   0.000108  -0.000052  -0.000016
     5  C   -0.010485  -0.003771   0.004158   0.000608  -0.000387  -0.000087
     6  C    0.000130  -0.000011  -0.000516  -0.010331  -0.023902   0.008833
     7  C    0.001449  -0.001522   0.004681   0.001007  -0.000027  -0.000023
     8  C   -0.048569  -0.054903  -0.066926  -0.000022   0.000002  -0.000003
     9  C    0.000453  -0.001356   0.001019   0.017752   0.001664  -0.002476
    10  H   -0.000509   0.000768  -0.003448   0.001618  -0.000156   0.000164
    11  H    0.000859  -0.000596  -0.003219   0.000160   0.000022  -0.000131
    12  C   -0.001275   0.000678   0.001003  -0.313694   0.050975   0.002074
    13  C   -0.000040   0.000002   0.001345   0.328552  -0.075117  -0.039709
    14  C   -0.000305   0.000030   0.000024   0.000019   0.000002  -0.000000
    15  H   -0.000071   0.000037  -0.000007   0.000002  -0.000000   0.000000
    16  H    0.000045  -0.000065   0.000007  -0.000003   0.000001  -0.000000
    17  H    0.000250  -0.000104   0.000019   0.000000   0.000000  -0.000000
    18  C    0.393504   0.404722   0.424349   0.000011   0.000001  -0.000000
    19  H    0.576094  -0.057965  -0.018541  -0.000001   0.000000  -0.000000
    20  H   -0.057965   0.572641  -0.022887   0.000001  -0.000000   0.000000
    21  H   -0.018541  -0.022887   0.490933   0.000049  -0.000001  -0.000001
    22  C   -0.000001   0.000001   0.000049   5.447128   0.384550   0.405991
    23  H    0.000000  -0.000000  -0.000001   0.384550   0.549809  -0.030043
    24  H   -0.000000   0.000000  -0.000001   0.405991  -0.030043   0.504066
    25  H    0.000000  -0.000000  -0.000001   0.379320  -0.020306  -0.008961
    26  C    0.000001  -0.000001  -0.000008  -0.040834   0.019363  -0.015177
    27  H    0.000000  -0.000000   0.000000   0.009884  -0.007813  -0.001928
    28  H   -0.000000   0.000000  -0.000000  -0.012320  -0.002960   0.001756
    29  H   -0.000000   0.000000  -0.000000   0.001810   0.000698   0.000177
              25         26         27         28         29
     1  O    0.010929   0.000837  -0.000158  -0.000033   0.000021
     2  O   -0.000000   0.000007  -0.000000   0.000000  -0.000000
     3  N    0.000025  -0.027985  -0.000426  -0.003827   0.003682
     4  H   -0.000003  -0.011158   0.000912   0.000595   0.002308
     5  C   -0.000092  -0.000641   0.000165   0.000643  -0.000507
     6  C   -0.001685   0.201685  -0.045260  -0.039944  -0.051754
     7  C    0.000010   0.005880  -0.000953  -0.000784   0.003854
     8  C    0.000001   0.000629   0.000004  -0.000025  -0.000007
     9  C    0.000111   0.021061   0.000565  -0.001470  -0.000998
    10  H   -0.000094  -0.000430  -0.000071   0.000003   0.000049
    11  H   -0.000044   0.000014   0.000029   0.000041  -0.000011
    12  C    0.029063  -0.091155   0.000404  -0.015164   0.022842
    13  C   -0.048714  -0.051666  -0.007374   0.006256   0.000132
    14  C    0.000000  -0.000400   0.000018  -0.000062   0.000423
    15  H   -0.000000  -0.000539  -0.000029   0.000037   0.000058
    16  H    0.000000   0.000460   0.000025  -0.000072  -0.000055
    17  H   -0.000000   0.000025  -0.000000  -0.000001  -0.000005
    18  C    0.000000  -0.000021  -0.000000  -0.000000   0.000001
    19  H    0.000000   0.000001   0.000000  -0.000000  -0.000000
    20  H   -0.000000  -0.000001  -0.000000   0.000000   0.000000
    21  H   -0.000001  -0.000008   0.000000  -0.000000  -0.000000
    22  C    0.379320  -0.040834   0.009884  -0.012320   0.001810
    23  H   -0.020306   0.019363  -0.007813  -0.002960   0.000698
    24  H   -0.008961  -0.015177  -0.001928   0.001756   0.000177
    25  H    0.505527   0.001961   0.000723   0.000074  -0.000050
    26  C    0.001961   5.248522   0.418747   0.433858   0.386599
    27  H    0.000723   0.418747   0.525086  -0.033462  -0.024831
    28  H    0.000074   0.433858  -0.033462   0.490234  -0.015167
    29  H   -0.000050   0.386599  -0.024831  -0.015167   0.520987
 Mulliken charges:
               1
     1  O   -0.396595
     2  O   -0.217838
     3  N   -0.206710
     4  H    0.287160
     5  C   -0.165014
     6  C    0.267078
     7  C    0.197431
     8  C    0.214175
     9  C   -0.321999
    10  H    0.157333
    11  H    0.162440
    12  C   -0.175281
    13  C    0.142812
    14  C   -0.504823
    15  H    0.154910
    16  H    0.154954
    17  H    0.179494
    18  C   -0.433322
    19  H    0.158474
    20  H    0.159638
    21  H    0.183718
    22  C   -0.480264
    23  H    0.149493
    24  H    0.172881
    25  H    0.152205
    26  C   -0.499636
    27  H    0.165745
    28  H    0.191796
    29  H    0.149745
 Sum of Mulliken charges =  -0.00000
 Mulliken charges with hydrogens summed into heavy atoms:
               1
     1  O   -0.396595
     2  O   -0.217838
     3  N    0.080450
     5  C   -0.165014
     6  C    0.267078
     7  C    0.197431
     8  C    0.214175
     9  C   -0.002226
    12  C   -0.175281
    13  C    0.142812
    14  C   -0.015464
    18  C    0.068508
    22  C   -0.005685
    26  C    0.007650
 Electronic spatial extent (au):  <R**2>=           3230.1520
 Charge=              0.0000 electrons
 Dipole moment (field-independent basis, Debye):
    X=             -0.5860    Y=              6.9932    Z=              0.0378  Tot=              7.0178
 Quadrupole moment (field-independent basis, Debye-Ang):
   XX=            -87.8747   YY=            -79.4745   ZZ=            -85.9189
   XY=            -16.0286   XZ=             -1.2290   YZ=             -0.6213
 Traceless Quadrupole moment (field-independent basis, Debye-Ang):
   XX=             -3.4520   YY=              4.9482   ZZ=             -1.4962
   XY=            -16.0286   XZ=             -1.2290   YZ=             -0.6213
 Octapole moment (field-independent basis, Debye-Ang**2):
  XXX=            -51.8052  YYY=             62.2938  ZZZ=              0.5872  XYY=             44.0218
  XXY=             22.0966  XXZ=             -1.2181  XZZ=             -1.4624  YZZ=             -0.9901
  YYZ=              1.1123  XYZ=              1.5919
 Hexadecapole moment (field-independent basis, Debye-Ang**3):
 XXXX=          -2949.8143 YYYY=          -1286.5658 ZZZZ=           -130.5612 XXXY=            -84.7143
 XXXZ=             -9.6135 YYYX=           -106.3181 YYYZ=             -8.1982 ZZZX=              1.0628
 ZZZY=              1.7298 XXYY=           -694.8658 XXZZ=           -491.7739 YYZZ=           -238.6423
 XXYZ=             -3.4336 YYXZ=             -4.1687 ZZXY=             -3.7495
 N-N= 8.977786508719D+02 E-N=-3.271647190242D+03  KE= 6.306289650225D+02
 No NMR shielding tensors so no spin-rotation constants.
 Leave Link  601 at Sat Jan 24 17:33:23 2026, MaxMem=  2147483648 cpu:               1.8 elap:               0.1
 (Enter /data/home/wyx/g16/l9999.exe)
 Electronic transition elements 
                 1             2             3             4             5 
      1  -0.633202D+03 -0.633193D+03 -0.633162D+03 -0.633136D+03 -0.633123D+03
      2   0.170420D+01  0.769405D-01  0.287828D-01  0.702199D+00 -0.141302D-01
      3   0.597210D+00  0.377735D-01 -0.791699D-01 -0.197926D+01  0.111176D+01
      4   0.333897D+00  0.608679D-01 -0.317402D-01  0.154676D+00 -0.326446D-01
      5  -0.190010D+00 -0.947159D-02 -0.330965D-02 -0.115332D+00  0.780050D-02
      6  -0.673779D-01 -0.445524D-02  0.116337D-01  0.341542D+00 -0.213052D+00
      7  -0.374135D-01 -0.649506D-02  0.137920D-02 -0.268195D-01  0.667140D-02
      8  -0.309637D+00  0.719372D+00  0.308785D+00 -0.145056D+00  0.121868D+00
      9   0.395430D-01  0.110197D-03 -0.869425D+00  0.658730D-01 -0.347048D-01
     10   0.134825D+01  0.250749D+00  0.131262D+00  0.552372D+00 -0.186991D+00
     11   0.354455D-01 -0.106273D-01 -0.529488D-01 -0.147746D+01  0.272614D+00
     12   0.239171D+00  0.209058D-01  0.163099D-01  0.342450D+00 -0.223959D+00
     13  -0.110742D-01  0.999307D-02  0.169255D-01 -0.286208D-01 -0.833175D-02
     14   0.563328D+00  0.271800D-01  0.708243D-02 -0.397897D+00  0.387353D+00
     15   0.120061D-01  0.293963D-01  0.665312D-01 -0.326381D+00  0.771056D-01
     16   0.111821D+00  0.412125D-01  0.241246D-01 -0.885427D-01  0.112636D+00
                 6 
      1  -0.633091D+03
      2   0.289534D-01
      3   0.518577D-01
      4  -0.446976D-02
      5  -0.106444D-01
      6  -0.100053D-01
      7   0.202912D-01
      8  -0.542354D-01
      9   0.578303D-03
     10   0.122487D-01
     11  -0.150990D+00
     12  -0.930835D-01
     13   0.764410D-01
     14   0.209555D-01
     15  -0.325808D-01
     16  -0.100761D+00
 1\1\GINC-CN015\SP\RCAM-B3LYP TD-FC\TZVP\C11H15N1O2\WYX\24-Jan-2026\0\\
 #p CAM-B3LYP TZVP em=gd3bj td(nstates=6,root=2) scrf=(Solvent=Water,Co
 rrectedLR,NonEquilibrium=Save) Geom=Check Guess=Read\\Title Card Requi
 red\\0,1\O,0,2.766599,-1.550992,0.665639\O,0,-3.387385,-1.658741,-0.71
 2197\N,0,-0.654178,1.525183,-0.094329\H,0,-0.96563,2.47844,-0.182473\C
 ,0,-1.236912,-0.77698,-0.174805\C,0,0.66848,1.317689,0.138944\C,0,-1.6
 07223,0.534477,-0.29697\C,0,-2.145188,-1.833778,-0.375696\C,0,0.180041
 ,-1.133566,0.214196\H,0,0.185317,-1.635938,1.186998\H,0,0.583039,-1.86
 8097,-0.485539\C,0,1.133601,0.04126,0.262403\C,0,2.511494,-0.357793,0.
 481362\C,0,-2.954537,1.068516,-0.626412\H,0,-3.337738,1.708069,0.17444
 6\H,0,-2.935489,1.662358,-1.544638\H,0,-3.684434,0.272304,-0.775326\C,
 0,-1.833914,-3.296885,-0.214604\H,0,-2.509524,-3.769833,0.501758\H,0,-
 1.945584,-3.82404,-1.16548\H,0,-0.81506,-3.433568,0.135954\C,0,3.67285
 1,0.60858,0.477694\H,0,3.652059,1.289674,-0.369494\H,0,3.68489,1.20716
 ,1.389248\H,0,4.587799,0.022296,0.443185\C,0,1.450273,2.595909,0.22306
 7\H,0,2.117078,2.612238,1.078673\H,0,2.046566,2.753478,-0.675211\H,0,0
 .772707,3.44258,0.319608\\Version=ES64L-G16RevA.03\State=1-A\HF=-633.3
 167346\RMSD=2.632e-09\Dipole=-0.7231724,2.653207,-0.2464683\Quadrupole
 =-8.9084837,10.7700692,-1.8615855,6.7752165,-2.7352177,0.9714356\PG=C0
 1 [X(C11H15N1O2)]\\@


      LET US REMEMBER, PLEASE, THAT THE SEARCH FOR THE CONSTITUTION
      OF THE WORLD IS ONE OF THE GREATEST AND NOBLEST PROBLEMS PRESENTED 
      BY NATURE.

                                                  -- GALILEO
 Job cpu time:       0 days  2 hours 55 minutes 44.8 seconds.
 Elapsed time:       0 days  0 hours 11 minutes 29.4 seconds.
 File lengths (MBytes):  RWF=    735 Int=      0 D2E=      0 Chk=     67 Scr=      1
 Normal termination of Gaussian 16 at Sat Jan 24 17:33:25 2026.
