 Entering Gaussian System, Link 0=g16
 Input=DDL-S2-cLR-gs-16.gjf
 Output=DDL-S2-cLR-gs-16.log
 Initial command:
 /data/home/wyx/g16/l1.exe "/scr/tmp/wyx/13119/Gau-1532232.inp" -scrdir="/scr/tmp/wyx/13119/"
 Entering Link 1 = /data/home/wyx/g16/l1.exe PID=   1532233.
  
 Copyright (c) 1988,1990,1992,1993,1995,1998,2003,2009,2016,
            Gaussian, Inc.  All Rights Reserved.
  
 This is part of the Gaussian(R) 16 program.  It is based on
 the Gaussian(R) 09 system (copyright 2009, Gaussian, Inc.),
 the Gaussian(R) 03 system (copyright 2003, Gaussian, Inc.),
 the Gaussian(R) 98 system (copyright 1998, Gaussian, Inc.),
 the Gaussian(R) 94 system (copyright 1995, Gaussian, Inc.),
 the Gaussian 92(TM) system (copyright 1992, Gaussian, Inc.),
 the Gaussian 90(TM) system (copyright 1990, Gaussian, Inc.),
 the Gaussian 88(TM) system (copyright 1988, Gaussian, Inc.),
 the Gaussian 86(TM) system (copyright 1986, Carnegie Mellon
 University), and the Gaussian 82(TM) system (copyright 1983,
 Carnegie Mellon University). Gaussian is a federally registered
 trademark of Gaussian, Inc.
  
 This software contains proprietary and confidential information,
 including trade secrets, belonging to Gaussian, Inc.
  
 This software is provided under written license and may be
 used, copied, transmitted, or stored only in accord with that
 written license.
  
 The following legend is applicable only to US Government
 contracts under FAR:
  
                    RESTRICTED RIGHTS LEGEND
  
 Use, reproduction and disclosure by the US Government is
 subject to restrictions as set forth in subparagraphs (a)
 and (c) of the Commercial Computer Software - Restricted
 Rights clause in FAR 52.227-19.
  
 Gaussian, Inc.
 340 Quinnipiac St., Bldg. 40, Wallingford CT 06492
  
  
 ---------------------------------------------------------------
 Warning -- This program may not be used in any manner that
 competes with the business of Gaussian, Inc. or will provide
 assistance to any competitor of Gaussian, Inc.  The licensee
 of this program is prohibited from giving any competitor of
 Gaussian, Inc. access to this program.  By using this program,
 the user acknowledges that Gaussian, Inc. is engaged in the
 business of creating and licensing software in the field of
 computational chemistry and represents and warrants to the
 licensee that it is not a competitor of Gaussian, Inc. and that
 it will not use this program in any manner prohibited above.
 ---------------------------------------------------------------
  

 Cite this work as:
 Gaussian 16, Revision A.03,
 M. J. Frisch, G. W. Trucks, H. B. Schlegel, G. E. Scuseria, 
 M. A. Robb, J. R. Cheeseman, G. Scalmani, V. Barone, 
 G. A. Petersson, H. Nakatsuji, X. Li, M. Caricato, A. V. Marenich, 
 J. Bloino, B. G. Janesko, R. Gomperts, B. Mennucci, H. P. Hratchian, 
 J. V. Ortiz, A. F. Izmaylov, J. L. Sonnenberg, D. Williams-Young, 
 F. Ding, F. Lipparini, F. Egidi, J. Goings, B. Peng, A. Petrone, 
 T. Henderson, D. Ranasinghe, V. G. Zakrzewski, J. Gao, N. Rega, 
 G. Zheng, W. Liang, M. Hada, M. Ehara, K. Toyota, R. Fukuda, 
 J. Hasegawa, M. Ishida, T. Nakajima, Y. Honda, O. Kitao, H. Nakai, 
 T. Vreven, K. Throssell, J. A. Montgomery, Jr., J. E. Peralta, 
 F. Ogliaro, M. J. Bearpark, J. J. Heyd, E. N. Brothers, K. N. Kudin, 
 V. N. Staroverov, T. A. Keith, R. Kobayashi, J. Normand, 
 K. Raghavachari, A. P. Rendell, J. C. Burant, S. S. Iyengar, 
 J. Tomasi, M. Cossi, J. M. Millam, M. Klene, C. Adamo, R. Cammi, 
 J. W. Ochterski, R. L. Martin, K. Morokuma, O. Farkas, 
 J. B. Foresman, and D. J. Fox, Gaussian, Inc., Wallingford CT, 2016.
 
 ******************************************
 Gaussian 16:  ES64L-G16RevA.03 25-Dec-2016
                24-Jan-2026 
 ******************************************
 %nprocshared=16
 Will use up to   16 processors via shared memory.
 %mem=16GB
 %oldchk=DDL-S2-cLR-16.chk
 %chk=DDL-S2-cLR-gs-16.chk
 Copying data from "DDL-S2-cLR-16.chk" to current chk file "DDL-S2-cLR-gs-16.chk"
 IOpt=  2 FromEx=T IUOpen= 4 IOptOp= 5 NList=   0 IFRang= 0 IUIn= 4 IUOut= 2.
 ----------------------------------------------------------------------
 #p CAM-B3LYP TZVP em=gd3bj scrf=(Solvent=Water,NonEquilibrium=Read) Ge
 om=Check Guess=Read
 ----------------------------------------------------------------------
 1/29=2,38=1,172=1/1;
 2/12=2,40=1/2;
 3/5=19,7=101,11=2,14=-4,25=1,30=1,70=6002201,72=1,74=-40,116=-2,124=41/1,2,3;
 4/5=1/1;
 5/5=2,38=6,53=1/2;
 6/7=2,8=2,9=2,10=2,28=1/1;
 99/5=1,9=1/99;
 Leave Link    1 at Sat Jan 24 23:46:38 2026, MaxMem=  2147483648 cpu:               6.5 elap:               0.7
 (Enter /data/home/wyx/g16/l101.exe)
 -------------------
 Title Card Required
 -------------------
 Structure from the checkpoint file:  "DDL-S2-cLR-gs-16.chk"
 Charge =  0 Multiplicity = 1
 Z-Matrix found in chk file.
 O,0,2.746842,-1.558273,0.733854
 O,0,-3.214155,-1.637944,-1.138025
 N,0,-0.713144,1.513159,0.142165
 H,0,-1.020715,2.470417,0.084584
 C,0,-1.24766,-0.757531,-0.150641
 C,0,0.640538,1.297188,0.292423
 C,0,-1.618465,0.541629,-0.222485
 C,0,-2.14903,-1.832974,-0.561083
 C,0,0.092392,-1.108731,0.45532
 H,0,-0.027787,-1.41544,1.502958
 H,0,0.522157,-1.974184,-0.043742
 C,0,1.091138,0.024223,0.367923
 C,0,2.49191,-0.390429,0.454266
 C,0,-2.938366,1.082053,-0.669893
 H,0,-3.042371,2.124383,-0.369161
 H,0,-3.025132,1.025379,-1.755047
 H,0,-3.760007,0.502889,-0.260133
 C,0,-1.72657,-3.248008,-0.251372
 H,0,-2.556804,-3.919421,-0.454159
 H,0,-0.879426,-3.533296,-0.878665
 H,0,-1.407582,-3.354901,0.78582
 C,0,3.64644,0.539674,0.172721
 H,0,3.447097,1.233613,-0.63949
 H,0,3.890924,1.119744,1.064145
 H,0,4.511405,-0.071324,-0.074522
 C,0,1.420131,2.575934,0.345756
 H,0,2.271081,2.516962,1.013098
 H,0,1.776933,2.853738,-0.647137
 H,0,0.778227,3.381471,0.700522
 Recover connectivity data from disk.
 ITRead=  0  0  0  0  0  0  0  0  0  0  0  0  0  0  0  0  0  0  0  0
 ITRead=  0  0  0  0  0  0  0  0  0
 MicOpt= -1 -1 -1 -1 -1 -1 -1 -1 -1 -1 -1 -1 -1 -1 -1 -1 -1 -1 -1 -1
 MicOpt= -1 -1 -1 -1 -1 -1 -1 -1 -1
 NAtoms=     29 NQM=       29 NQMF=       0 NMMI=      0 NMMIF=      0
                NMic=       0 NMicF=      0.
                    Isotopes and Nuclear Properties:
 (Nuclear quadrupole moments (NQMom) in fm**2, nuclear magnetic moments (NMagM)
  in nuclear magnetons)

  Atom         1           2           3           4           5           6           7           8           9          10
 IAtWgt=          16          16          14           1          12          12          12          12          12           1
 AtmWgt=  15.9949146  15.9949146  14.0030740   1.0078250  12.0000000  12.0000000  12.0000000  12.0000000  12.0000000   1.0078250
 NucSpn=           0           0           2           1           0           0           0           0           0           1
 AtZEff=   5.6000000   5.6000000   4.5500000   1.0000000   3.6000000   3.6000000   3.6000000   3.6000000   3.6000000   1.0000000
 NQMom=    0.0000000   0.0000000   2.0440000   0.0000000   0.0000000   0.0000000   0.0000000   0.0000000   0.0000000   0.0000000
 NMagM=    0.0000000   0.0000000   0.4037610   2.7928460   0.0000000   0.0000000   0.0000000   0.0000000   0.0000000   2.7928460
 AtZNuc=   8.0000000   8.0000000   7.0000000   1.0000000   6.0000000   6.0000000   6.0000000   6.0000000   6.0000000   1.0000000

  Atom        11          12          13          14          15          16          17          18          19          20
 IAtWgt=           1          12          12          12           1           1           1          12           1           1
 AtmWgt=   1.0078250  12.0000000  12.0000000  12.0000000   1.0078250   1.0078250   1.0078250  12.0000000   1.0078250   1.0078250
 NucSpn=           1           0           0           0           1           1           1           0           1           1
 AtZEff=   1.0000000   3.6000000   3.6000000   3.6000000   1.0000000   1.0000000   1.0000000   3.6000000   1.0000000   1.0000000
 NQMom=    0.0000000   0.0000000   0.0000000   0.0000000   0.0000000   0.0000000   0.0000000   0.0000000   0.0000000   0.0000000
 NMagM=    2.7928460   0.0000000   0.0000000   0.0000000   2.7928460   2.7928460   2.7928460   0.0000000   2.7928460   2.7928460
 AtZNuc=   1.0000000   6.0000000   6.0000000   6.0000000   1.0000000   1.0000000   1.0000000   6.0000000   1.0000000   1.0000000

  Atom        21          22          23          24          25          26          27          28          29
 IAtWgt=           1          12           1           1           1          12           1           1           1
 AtmWgt=   1.0078250  12.0000000   1.0078250   1.0078250   1.0078250  12.0000000   1.0078250   1.0078250   1.0078250
 NucSpn=           1           0           1           1           1           0           1           1           1
 AtZEff=   1.0000000   3.6000000   1.0000000   1.0000000   1.0000000   3.6000000   1.0000000   1.0000000   1.0000000
 NQMom=    0.0000000   0.0000000   0.0000000   0.0000000   0.0000000   0.0000000   0.0000000   0.0000000   0.0000000
 NMagM=    2.7928460   0.0000000   2.7928460   2.7928460   2.7928460   0.0000000   2.7928460   2.7928460   2.7928460
 AtZNuc=   1.0000000   6.0000000   1.0000000   1.0000000   1.0000000   6.0000000   1.0000000   1.0000000   1.0000000
 Leave Link  101 at Sat Jan 24 23:46:41 2026, MaxMem=  2147483648 cpu:               0.9 elap:               0.1
 (Enter /data/home/wyx/g16/l202.exe)
                          Input orientation:                          
 ---------------------------------------------------------------------
 Center     Atomic      Atomic             Coordinates (Angstroms)
 Number     Number       Type             X           Y           Z
 ---------------------------------------------------------------------
      1          8           0        2.746842   -1.558273    0.733854
      2          8           0       -3.214155   -1.637944   -1.138025
      3          7           0       -0.713144    1.513159    0.142165
      4          1           0       -1.020715    2.470417    0.084584
      5          6           0       -1.247660   -0.757531   -0.150641
      6          6           0        0.640538    1.297188    0.292423
      7          6           0       -1.618465    0.541629   -0.222485
      8          6           0       -2.149030   -1.832974   -0.561083
      9          6           0        0.092392   -1.108731    0.455320
     10          1           0       -0.027787   -1.415440    1.502958
     11          1           0        0.522157   -1.974184   -0.043742
     12          6           0        1.091138    0.024223    0.367923
     13          6           0        2.491910   -0.390429    0.454266
     14          6           0       -2.938366    1.082053   -0.669893
     15          1           0       -3.042371    2.124383   -0.369161
     16          1           0       -3.025132    1.025379   -1.755047
     17          1           0       -3.760007    0.502889   -0.260133
     18          6           0       -1.726570   -3.248008   -0.251372
     19          1           0       -2.556804   -3.919421   -0.454159
     20          1           0       -0.879426   -3.533296   -0.878665
     21          1           0       -1.407582   -3.354901    0.785820
     22          6           0        3.646440    0.539674    0.172721
     23          1           0        3.447097    1.233613   -0.639490
     24          1           0        3.890924    1.119744    1.064145
     25          1           0        4.511405   -0.071324   -0.074522
     26          6           0        1.420131    2.575934    0.345756
     27          1           0        2.271081    2.516962    1.013098
     28          1           0        1.776933    2.853738   -0.647137
     29          1           0        0.778227    3.381471    0.700522
 ---------------------------------------------------------------------
                    Distance matrix (angstroms):
                    1          2          3          4          5
     1  O    0.000000
     2  O    6.248501   0.000000
     3  N    4.664257   4.221776   0.000000
     4  H    5.553952   4.815037   1.007104   0.000000
     5  C    4.168881   2.370054   2.351058   3.244454   0.000000
     6  C    3.575617   5.051716   1.379013   2.044364   2.825503
     7  C    4.937619   2.852188   1.377115   2.042503   1.352950
     8  C    5.071675   1.226943   3.708495   4.495459   1.462022
     9  C    2.706617   3.708378   2.760663   3.766531   1.512042
    10  H    2.882792   4.144543   3.301237   4.254125   2.157620
    11  H    2.393086   3.907754   3.704334   4.706527   2.150331
    12  C    2.319387   4.854506   2.350177   3.244082   2.519925
    13  C    1.227607   6.053996   3.740779   4.545288   3.805924
    14  C    6.423661   2.773732   2.407676   2.484789   2.551897
    15  H    6.949359   3.843926   2.461777   2.100647   3.402083
    16  H    6.795997   2.740390   3.030286   3.080595   2.985346
    17  H    6.897498   2.377355   3.235099   3.390238   2.812923
    18  C    4.882345   2.364608   4.883709   5.771610   2.538105
    19  H    5.925796   2.470814   5.767808   6.593925   3.435627
    20  H    4.432917   3.018375   5.151354   6.082136   2.893179
    21  H    4.526567   3.148464   4.959289   5.880113   2.765658
    22  C    2.350644   7.316272   4.467055   5.051522   5.073413
    23  H    3.189210   7.270946   4.242256   4.692048   5.122926
    24  H    2.930834   7.933256   4.711928   5.187297   5.604009
    25  H    2.445030   7.954220   5.463831   6.090165   5.800302
    26  C    4.359180   6.437001   2.392029   2.457046   4.298315
    27  H    4.112404   7.209604   3.266763   3.420559   4.945516
    28  H    4.723738   6.732543   2.936091   2.917051   4.736659
    29  H    5.317671   6.671874   2.454901   2.108457   4.686153
                    6          7          8          9         10
     6  C    0.000000
     7  C    2.437026   0.000000
     8  C    4.278794   2.456601   0.000000
     9  C    2.472943   2.471870   2.565458   0.000000
    10  H    3.044734   3.055737   2.989025   1.098207   0.000000
    11  H    3.290729   3.308100   2.724486   1.087552   1.734046
    12  C    1.352472   2.821035   3.848496   1.512850   2.147773
    13  C    2.510343   4.268713   4.964896   2.504725   2.915352
    14  C    3.712262   1.494781   3.021965   3.905270   4.407973
    15  H    3.832201   2.134041   4.061473   4.578158   5.012274
    16  H    4.207511   2.135760   3.219206   4.377111   5.055321
    17  H    4.505666   2.142223   2.853432   4.236764   4.551697
    18  C    5.153418   3.791289   1.508879   2.895607   3.053169
    19  H    6.163878   4.564550   2.128608   3.968044   4.061546
    20  H    5.197626   4.193061   2.145658   2.932995   3.298898
    21  H    5.106875   4.030397   2.163367   2.721109   2.485886
    22  C    3.102193   5.279717   6.305188   3.927895   4.369433
    23  H    2.957918   5.129586   6.381751   4.235473   4.866455
    24  H    3.345452   5.687091   6.916716   4.445854   4.687858
    25  H    4.122024   6.162216   6.906631   4.569970   4.989925
    26  C    1.498600   3.700589   5.744540   3.918118   4.400756
    27  H    2.160067   4.534002   6.398232   4.266550   4.581325
    28  H    2.144065   4.129758   6.114398   4.444575   5.109384
    29  H    2.128318   3.828939   6.111540   4.548891   4.929900
                   11         12         13         14         15
    11  H    0.000000
    12  C    2.118216   0.000000
    13  C    2.576086   1.463405   0.000000
    14  C    4.659170   4.293363   5.737581   0.000000
    15  H    5.441508   4.694663   6.134377   1.089820   0.000000
    16  H    4.950677   4.738459   6.109282   1.090092   1.768838
    17  H    4.951731   4.914996   6.355694   1.085554   1.776550
    18  C    2.592781   4.362396   5.143856   4.515865   5.532431
    19  H    3.665023   5.434669   6.226438   5.020645   6.063874
    20  H    2.256626   4.253592   4.797940   5.058089   6.078426
    21  H    2.513652   4.223354   4.909589   4.914159   5.833444
    22  C    4.015904   2.614070   1.509072   6.660619   6.895298
    23  H    4.381798   2.833381   2.178577   6.387334   6.555894
    24  H    4.706208   3.086048   2.147048   7.046099   7.150821
    25  H    4.419946   3.450089   2.111825   7.561999   7.871942
    26  C    4.654207   2.572928   3.155914   4.718021   4.541908
    27  H    4.934170   2.832360   2.968835   5.659484   5.504319
    28  H    5.024677   3.083313   3.499843   5.037205   4.882102
    29  H    5.413182   3.388163   4.150251   4.580221   4.161906
                   16         17         18         19         20
    16  H    0.000000
    17  H    1.745796   0.000000
    18  C    4.712657   4.266635   0.000000
    19  H    5.134461   4.587174   1.086833   0.000000
    20  H    5.114061   4.997111   1.092034   1.772821   0.000000
    21  H    5.315950   4.637938   1.090388   1.782398   1.755359
    22  C    6.961471   7.419176   6.587536   7.665295   6.178832
    23  H    6.570965   7.253979   6.855829   7.914224   6.442005
    24  H    7.469175   7.789157   7.236303   8.322958   6.941292
    25  H    7.799122   8.293397   7.002495   8.056771   6.457008
    26  C    5.155381   5.612348   6.646547   7.658036   6.641525
    27  H    6.159328   6.484723   7.128462   8.178529   7.078848
    28  H    5.256443   6.027766   7.047160   8.043270   6.921275
    29  H    5.103580   5.459364   7.150532   8.109177   7.283931
                   21         22         23         24         25
    21  H    0.000000
    22  C    6.409894   0.000000
    23  H    6.830364   1.086727   0.000000
    24  H    6.940755   1.091279   1.764177   0.000000
    25  H    6.823230   1.087480   1.776176   1.760739   0.000000
    26  C    6.585167   3.022044   2.623190   2.956584   4.091526
    27  H    6.932748   2.550983   2.400218   2.139793   3.591823
    28  H    7.123321   3.085793   2.326867   3.225551   4.044900
    29  H    7.082637   4.071981   3.678559   3.864779   5.143841
                   26         27         28         29
    26  C    0.000000
    27  H    1.083023   0.000000
    28  H    1.091018   1.764647   0.000000
    29  H    1.089399   1.753195   1.758437   0.000000
 Stoichiometry    C11H15NO2
 Framework group  C1[X(C11H15NO2)]
 Deg. of freedom    81
 Full point group                 C1      NOp   1
 RotChk:  IX=0 Diff= 7.83D-16
 Largest Abelian subgroup         C1      NOp   1
 Largest concise Abelian subgroup C1      NOp   1
                         Standard orientation:                         
 ---------------------------------------------------------------------
 Center     Atomic      Atomic             Coordinates (Angstroms)
 Number     Number       Type             X           Y           Z
 ---------------------------------------------------------------------
      1          8           0       -2.285615   -2.280482   -0.172671
      2          8           0        3.584909   -0.246540    0.493507
      3          7           0       -0.028220    1.799998   -0.268318
      4          1           0       -0.058965    2.806628   -0.271301
      5          6           0        1.289881   -0.138462   -0.088148
      6          6           0       -1.231089    1.136024   -0.150330
      7          6           0        1.203994    1.211759   -0.089232
      8          6           0        2.562197   -0.822745    0.136520
      9          6           0        0.061284   -0.955053   -0.419808
     10          1           0        0.082655   -1.272387   -1.470951
     11          1           0        0.051033   -1.879439    0.153057
     12          6           0       -1.228363   -0.216381   -0.137155
     13          6           0       -2.395385   -1.078716    0.052561
     14          6           0        2.320452    2.189193    0.091083
     15          1           0        2.006863    3.184466   -0.223243
     16          1           0        2.620259    2.236141    1.138084
     17          1           0        3.199145    1.891213   -0.472419
     18          6           0        2.595832   -2.314803   -0.085618
     19          1           0        3.626976   -2.656413   -0.050244
     20          1           0        2.027352   -2.824106    0.695394
     21          1           0        2.146262   -2.589807   -1.040189
     22          6           0       -3.723944   -0.569974    0.555960
     23          1           0       -3.625631    0.202546    1.313933
     24          1           0       -4.311128   -0.164427   -0.269654
     25          1           0       -4.268498   -1.416561    0.967499
     26          6           0       -2.394134    2.075579   -0.048524
     27          1           0       -3.282228    1.692753   -0.536041
     28          1           0       -2.634033    2.283299    0.995324
     29          1           0       -2.141226    3.023767   -0.521564
 ---------------------------------------------------------------------
 Rotational constants (GHZ):           1.0780881           0.4908019           0.3474928
 Leave Link  202 at Sat Jan 24 23:46:41 2026, MaxMem=  2147483648 cpu:               0.0 elap:               0.0
 (Enter /data/home/wyx/g16/l301.exe)
 Standard basis: TZVP (5D, 7F)
 Ernie: Thresh=  0.10000D-02 Tol=  0.10000D-05 Strict=F.
 There are   370 symmetry adapted cartesian basis functions of A   symmetry.
 There are   356 symmetry adapted basis functions of A   symmetry.
   356 basis functions,   610 primitive gaussians,   370 cartesian basis functions
    52 alpha electrons       52 beta electrons
       nuclear repulsion energy       900.7656063655 Hartrees.
 IExCor=20419 DFT=T Ex+Corr=CAM-B3LYP ExCW=0 ScaHFX=  1.000000
 ScaDFX=  1.000000  1.000000  1.000000  0.810000 ScalE2=  1.000000  1.000000
 IRadAn=      5 IRanWt=     -1 IRanGd=            0 ICorTp=0 IEmpDi=141
 HFx  wShort=  0.000000 wLong=  0.330000 cFull=  0.190000 cShort=  0.000000 cLong=  0.460000
 DFx  wShort=  0.000000 wLong=  0.330000 cFull=  0.190000 cShort=  0.000000 cLong=  0.460000
 NAtoms=   29 NActive=   29 NUniq=   29 SFac= 1.00D+00 NAtFMM=   60 NAOKFM=F Big=F
 Integral buffers will be    131072 words long.
 Raffenetti 2 integral format.
 Two-electron integral symmetry is turned on.
 R6Disp:  Grimme-D3(BJ) Dispersion energy=       -0.0262203195 Hartrees.
 Nuclear repulsion after empirical dispersion term =      900.7393860460 Hartrees.
 ------------------------------------------------------------------------------
 Polarizable Continuum Model (PCM)
 =================================
 Model                : PCM.
 Atomic radii         : UFF (Universal Force Field).
 Polarization charges : Total charges.
 Charge compensation  : None.
 Solution method      : On-the-fly selection.
 Cavity type          : Scaled VdW (van der Waals Surface) (Alpha=1.100).
 Cavity algorithm     : GePol (No added spheres)
                        Default sphere list used, NSphG=   29.
                        Lebedev-Laikov grids with approx.  5.0 points / Ang**2.
                        Smoothing algorithm: York/Karplus (Gamma=1.0000).
                        Polarization charges: spherical gaussians, with
                                              point-specific exponents (IZeta= 3).
                        Self-potential: point-specific (ISelfS= 7).
                        Self-field    : sphere-specific E.n sum rule (ISelfD= 2).
 Solvent              : Water, Eps=  78.355300 Eps(inf)=   1.777849
 ------------------------------------------------------------------------------
 GePol: Number of generator spheres                  =      29
 GePol: Total number of spheres                      =      29
 GePol: Number of exposed spheres                    =      29 (100.00%)
 GePol: Number of points                             =    2091
 GePol: Average weight of points                     =       0.13
 GePol: Minimum weight of points                     =   0.43D-09
 GePol: Maximum weight of points                     =    0.20577
 GePol: Number of points with low weight             =     133
 GePol: Fraction of low-weight points (<1% of avg)   =       6.36%
 GePol: Cavity surface area                          =    268.679 Ang**2
 GePol: Cavity volume                                =    286.746 Ang**3
 Leave Link  301 at Sat Jan 24 23:46:41 2026, MaxMem=  2147483648 cpu:               0.6 elap:               0.0
 (Enter /data/home/wyx/g16/l302.exe)
 NPDir=0 NMtPBC=     1 NCelOv=     1 NCel=       1 NClECP=     1 NCelD=      1
         NCelK=      1 NCelE2=     1 NClLst=     1 CellRange=     0.0.
 One-electron integrals computed using PRISM.
 One-electron integral symmetry used in STVInt
 NBasis=   356 RedAO= T EigKep=  4.72D-05  NBF=   356
 NBsUse=   356 1.00D-06 EigRej= -1.00D+00 NBFU=   356
 Precomputing XC quadrature grid using
 IXCGrd= 4 IRadAn=           5 IRanWt=          -1 IRanGd=           0 AccXCQ= 0.00D+00.
 Generated NRdTot=       0 NPtTot=           0 NUsed=           0 NTot=          32
 NSgBfM=   366   366   366   366   366 MxSgAt=    29 MxSgA2=    29.
 Leave Link  302 at Sat Jan 24 23:46:42 2026, MaxMem=  2147483648 cpu:               3.1 elap:               0.2
 (Enter /data/home/wyx/g16/l303.exe)
 DipDrv:  MaxL=1.
 Leave Link  303 at Sat Jan 24 23:46:42 2026, MaxMem=  2147483648 cpu:               0.6 elap:               0.0
 (Enter /data/home/wyx/g16/l401.exe)
 Initial guess from the checkpoint file:  "DDL-S2-cLR-gs-16.chk"
 B after Tr=     0.000000    0.000000   -0.000000
         Rot=    1.000000   -0.000000    0.000000    0.000000 Ang=   0.00 deg.
 Guess basis will be translated and rotated to current coordinates.
 JPrj=2 DoOrth=T DoCkMO=T.
 Leave Link  401 at Sat Jan 24 23:46:42 2026, MaxMem=  2147483648 cpu:               2.2 elap:               0.2
 (Enter /data/home/wyx/g16/l502.exe)
 Integral symmetry usage will be decided dynamically.
 Closed shell SCF:
 Using DIIS extrapolation, IDIIS=  1040.
 NGot=  2147483648 LenX=  2147200095 LenY=  2147062754
 Requested convergence on RMS density matrix=1.00D-08 within 128 cycles.
 Requested convergence on MAX density matrix=1.00D-06.
 Requested convergence on             energy=1.00D-06.
 No special actions if energy rises.
 Fock matrices will be formed incrementally for  20 cycles.

 Cycle   1  Pass 1  IDiag  1:
 FoFJK:  IHMeth= 1 ICntrl=       0 DoSepK=T KAlg= 0 I1Cent=           0 FoldK=F
 IRaf=         1 NMat=       1 IRICut=       1 DoRegI=T DoRafI=F ISym2E= 0 IDoP0=0 IntGTp=1.
 FoFCou: FMM=F IPFlag=           0 FMFlag=      100000 FMFlg1=           0
         NFxFlg=           0 DoJE=T BraDBF=F KetDBF=F FulRan=T
         wScrn=  0.000000 ICntrl=       500 IOpCl=  0 I1Cent=           0 NGrid=           0
         NMat0=    1 NMatS0=      1 NMatT0=    0 NMatD0=    1 NMtDS0=    0 NMtDT0=    0
 Symmetry not used in FoFCou.
 Inv3:  Mode=1 IEnd=    13116843.
 Iteration    1 A*A^-1 deviation from unit magnitude is 3.11D-15 for    954.
 Iteration    1 A*A^-1 deviation from orthogonality  is 2.22D-15 for   2066   1847.
 Iteration    1 A^-1*A deviation from unit magnitude is 2.89D-15 for    732.
 Iteration    1 A^-1*A deviation from orthogonality  is 2.44D-15 for   2082   1862.
 NEqPCM:  Using non-equilibrium solvation (IEInf=1, Eps=  78.3553, EpsInf=   1.7778)
 Inv3:  Mode=1 IEnd=    13116843.
 Iteration    1 A*A^-1 deviation from unit magnitude is 3.11D-15 for    383.
 Iteration    1 A*A^-1 deviation from orthogonality  is 2.00D-15 for   1820    643.
 Iteration    1 A^-1*A deviation from unit magnitude is 3.11D-15 for    383.
 Iteration    1 A^-1*A deviation from orthogonality  is 2.41D-15 for   1507   1129.
 E= -633.330319827983    
 DIIS: error= 6.84D-04 at cycle   1 NSaved=   1.
 NSaved= 1 IEnMin= 1 EnMin= -633.330319827983     IErMin= 1 ErrMin= 6.84D-04
 ErrMax= 6.84D-04  0.00D+00 EMaxC= 1.00D-01 BMatC= 1.13D-04 BMatP= 1.13D-04
 IDIUse=3 WtCom= 9.93D-01 WtEn= 6.84D-03
 Coeff-Com:  0.100D+01
 Coeff-En:   0.100D+01
 Coeff:      0.100D+01
 Gap=     0.241 Goal=   None    Shift=    0.000
 RMSDP=3.99D-04 MaxDP=1.84D-02              OVMax= 1.11D-02

 Cycle   2  Pass 1  IDiag  1:
 RMSU=  3.97D-04    CP:  1.00D+00
 E= -633.330518267564     Delta-E=       -0.000198439582 Rises=F Damp=F
 DIIS: error= 5.05D-04 at cycle   2 NSaved=   2.
 NSaved= 2 IEnMin= 2 EnMin= -633.330518267564     IErMin= 2 ErrMin= 5.05D-04
 ErrMax= 5.05D-04  0.00D+00 EMaxC= 1.00D-01 BMatC= 1.07D-04 BMatP= 1.13D-04
 IDIUse=3 WtCom= 9.95D-01 WtEn= 5.05D-03
 Coeff-Com:  0.491D+00 0.509D+00
 Coeff-En:   0.000D+00 0.100D+01
 Coeff:      0.489D+00 0.511D+00
 Gap=     0.241 Goal=   None    Shift=    0.000
 RMSDP=1.06D-04 MaxDP=5.19D-03 DE=-1.98D-04 OVMax= 2.78D-03

 Cycle   3  Pass 1  IDiag  1:
 RMSU=  9.89D-05    CP:  1.00D+00  9.69D-01
 E= -633.330600804688     Delta-E=       -0.000082537123 Rises=F Damp=F
 DIIS: error= 1.98D-04 at cycle   3 NSaved=   3.
 NSaved= 3 IEnMin= 3 EnMin= -633.330600804688     IErMin= 3 ErrMin= 1.98D-04
 ErrMax= 1.98D-04  0.00D+00 EMaxC= 1.00D-01 BMatC= 1.47D-05 BMatP= 1.07D-04
 IDIUse=3 WtCom= 9.98D-01 WtEn= 1.98D-03
 Coeff-Com:  0.680D-01 0.250D+00 0.682D+00
 Coeff-En:   0.000D+00 0.118D-01 0.988D+00
 Coeff:      0.678D-01 0.250D+00 0.682D+00
 Gap=     0.241 Goal=   None    Shift=    0.000
 RMSDP=2.79D-05 MaxDP=1.41D-03 DE=-8.25D-05 OVMax= 1.51D-03

 Cycle   4  Pass 1  IDiag  1:
 RMSU=  2.25D-05    CP:  1.00D+00  9.86D-01  1.15D+00
 E= -633.330612693506     Delta-E=       -0.000011888818 Rises=F Damp=F
 DIIS: error= 4.94D-05 at cycle   4 NSaved=   4.
 NSaved= 4 IEnMin= 4 EnMin= -633.330612693506     IErMin= 4 ErrMin= 4.94D-05
 ErrMax= 4.94D-05  0.00D+00 EMaxC= 1.00D-01 BMatC= 1.00D-06 BMatP= 1.47D-05
 IDIUse=1 WtCom= 1.00D+00 WtEn= 0.00D+00
 Coeff-Com: -0.122D-01 0.249D-01 0.205D+00 0.782D+00
 Coeff:     -0.122D-01 0.249D-01 0.205D+00 0.782D+00
 Gap=     0.241 Goal=   None    Shift=    0.000
 RMSDP=1.82D-05 MaxDP=8.80D-04 DE=-1.19D-05 OVMax= 8.97D-04

 Cycle   5  Pass 1  IDiag  1:
 RMSU=  1.03D-05    CP:  1.00D+00  9.98D-01  1.29D+00  1.07D+00
 E= -633.330614022223     Delta-E=       -0.000001328717 Rises=F Damp=F
 DIIS: error= 2.26D-05 at cycle   5 NSaved=   5.
 NSaved= 5 IEnMin= 5 EnMin= -633.330614022223     IErMin= 5 ErrMin= 2.26D-05
 ErrMax= 2.26D-05  0.00D+00 EMaxC= 1.00D-01 BMatC= 2.71D-07 BMatP= 1.00D-06
 IDIUse=1 WtCom= 1.00D+00 WtEn= 0.00D+00
 Coeff-Com: -0.130D-01-0.256D-01 0.238D-03 0.357D+00 0.681D+00
 Coeff:     -0.130D-01-0.256D-01 0.238D-03 0.357D+00 0.681D+00
 Gap=     0.241 Goal=   None    Shift=    0.000
 RMSDP=7.07D-06 MaxDP=2.89D-04 DE=-1.33D-06 OVMax= 3.22D-04

 Cycle   6  Pass 1  IDiag  1:
 RMSU=  3.34D-06    CP:  1.00D+00  9.98D-01  1.34D+00  1.22D+00  1.08D+00
 E= -633.330614406587     Delta-E=       -0.000000384363 Rises=F Damp=F
 DIIS: error= 1.30D-05 at cycle   6 NSaved=   6.
 NSaved= 6 IEnMin= 6 EnMin= -633.330614406587     IErMin= 6 ErrMin= 1.30D-05
 ErrMax= 1.30D-05  0.00D+00 EMaxC= 1.00D-01 BMatC= 2.79D-08 BMatP= 2.71D-07
 IDIUse=1 WtCom= 1.00D+00 WtEn= 0.00D+00
 Coeff-Com: -0.128D-02-0.140D-01-0.226D-01 0.821D-02 0.196D+00 0.834D+00
 Coeff:     -0.128D-02-0.140D-01-0.226D-01 0.821D-02 0.196D+00 0.834D+00
 Gap=     0.241 Goal=   None    Shift=    0.000
 RMSDP=3.13D-06 MaxDP=1.18D-04 DE=-3.84D-07 OVMax= 2.59D-04

 Cycle   7  Pass 1  IDiag  1:
 RMSU=  1.47D-06    CP:  1.00D+00  9.96D-01  1.36D+00  1.28D+00  1.18D+00
                    CP:  1.18D+00
 E= -633.330614477582     Delta-E=       -0.000000070996 Rises=F Damp=F
 DIIS: error= 5.30D-06 at cycle   7 NSaved=   7.
 NSaved= 7 IEnMin= 7 EnMin= -633.330614477582     IErMin= 7 ErrMin= 5.30D-06
 ErrMax= 5.30D-06  0.00D+00 EMaxC= 1.00D-01 BMatC= 1.26D-08 BMatP= 2.79D-08
 IDIUse=1 WtCom= 1.00D+00 WtEn= 0.00D+00
 Coeff-Com:  0.195D-02-0.341D-02-0.790D-02-0.648D-01-0.710D-01 0.423D+00
 Coeff-Com:  0.722D+00
 Coeff:      0.195D-02-0.341D-02-0.790D-02-0.648D-01-0.710D-01 0.423D+00
 Coeff:      0.722D+00
 Gap=     0.241 Goal=   None    Shift=    0.000
 RMSDP=1.44D-06 MaxDP=6.39D-05 DE=-7.10D-08 OVMax= 1.29D-04

 Cycle   8  Pass 1  IDiag  1:
 RMSU=  5.53D-07    CP:  1.00D+00  9.95D-01  1.36D+00  1.31D+00  1.24D+00
                    CP:  1.38D+00  1.10D+00
 E= -633.330614499949     Delta-E=       -0.000000022367 Rises=F Damp=F
 DIIS: error= 1.88D-06 at cycle   8 NSaved=   8.
 NSaved= 8 IEnMin= 8 EnMin= -633.330614499949     IErMin= 8 ErrMin= 1.88D-06
 ErrMax= 1.88D-06  0.00D+00 EMaxC= 1.00D-01 BMatC= 1.25D-09 BMatP= 1.26D-08
 IDIUse=1 WtCom= 1.00D+00 WtEn= 0.00D+00
 Coeff-Com:  0.899D-03 0.314D-03 0.189D-02-0.220D-01-0.692D-01 0.864D-02
 Coeff-Com:  0.235D+00 0.844D+00
 Coeff:      0.899D-03 0.314D-03 0.189D-02-0.220D-01-0.692D-01 0.864D-02
 Coeff:      0.235D+00 0.844D+00
 Gap=     0.241 Goal=   None    Shift=    0.000
 RMSDP=6.12D-07 MaxDP=1.96D-05 DE=-2.24D-08 OVMax= 5.33D-05

 Cycle   9  Pass 1  IDiag  1:
 RMSU=  1.78D-07    CP:  1.00D+00  9.94D-01  1.37D+00  1.32D+00  1.24D+00
                    CP:  1.48D+00  1.29D+00  1.17D+00
 E= -633.330614502805     Delta-E=       -0.000000002856 Rises=F Damp=F
 DIIS: error= 7.62D-07 at cycle   9 NSaved=   9.
 NSaved= 9 IEnMin= 9 EnMin= -633.330614502805     IErMin= 9 ErrMin= 7.62D-07
 ErrMax= 7.62D-07  0.00D+00 EMaxC= 1.00D-01 BMatC= 1.35D-10 BMatP= 1.25D-09
 IDIUse=1 WtCom= 1.00D+00 WtEn= 0.00D+00
 Coeff-Com:  0.550D-04 0.469D-03 0.178D-02 0.273D-02-0.164D-01-0.571D-01
 Coeff-Com: -0.946D-02 0.309D+00 0.769D+00
 Coeff:      0.550D-04 0.469D-03 0.178D-02 0.273D-02-0.164D-01-0.571D-01
 Coeff:     -0.946D-02 0.309D+00 0.769D+00
 Gap=     0.241 Goal=   None    Shift=    0.000
 RMSDP=1.76D-07 MaxDP=8.10D-06 DE=-2.86D-09 OVMax= 1.75D-05

 Cycle  10  Pass 1  IDiag  1:
 RMSU=  7.35D-08    CP:  1.00D+00  9.94D-01  1.37D+00  1.32D+00  1.24D+00
                    CP:  1.51D+00  1.35D+00  1.27D+00  1.02D+00
 E= -633.330614503083     Delta-E=       -0.000000000278 Rises=F Damp=F
 DIIS: error= 1.84D-07 at cycle  10 NSaved=  10.
 NSaved=10 IEnMin=10 EnMin= -633.330614503083     IErMin=10 ErrMin= 1.84D-07
 ErrMax= 1.84D-07  0.00D+00 EMaxC= 1.00D-01 BMatC= 2.28D-11 BMatP= 1.35D-10
 IDIUse=1 WtCom= 1.00D+00 WtEn= 0.00D+00
 Coeff-Com: -0.641D-04 0.223D-03 0.173D-03 0.316D-02 0.152D-02-0.207D-01
 Coeff-Com: -0.257D-01-0.368D-02 0.263D+00 0.782D+00
 Coeff:     -0.641D-04 0.223D-03 0.173D-03 0.316D-02 0.152D-02-0.207D-01
 Coeff:     -0.257D-01-0.368D-02 0.263D+00 0.782D+00
 Gap=     0.241 Goal=   None    Shift=    0.000
 RMSDP=6.60D-08 MaxDP=2.33D-06 DE=-2.78D-10 OVMax= 4.43D-06

 Cycle  11  Pass 1  IDiag  1:
 RMSU=  2.32D-08    CP:  1.00D+00  9.94D-01  1.37D+00  1.32D+00  1.24D+00
                    CP:  1.51D+00  1.37D+00  1.31D+00  1.15D+00  1.15D+00
 E= -633.330614503120     Delta-E=       -0.000000000037 Rises=F Damp=F
 DIIS: error= 1.05D-07 at cycle  11 NSaved=  11.
 NSaved=11 IEnMin=11 EnMin= -633.330614503120     IErMin=11 ErrMin= 1.05D-07
 ErrMax= 1.05D-07  0.00D+00 EMaxC= 1.00D-01 BMatC= 3.69D-12 BMatP= 2.28D-11
 IDIUse=1 WtCom= 1.00D+00 WtEn= 0.00D+00
 Coeff-Com: -0.365D-04 0.620D-04-0.223D-03 0.105D-02 0.309D-02 0.189D-03
 Coeff-Com: -0.680D-02-0.477D-01 0.839D-02 0.306D+00 0.736D+00
 Coeff:     -0.365D-04 0.620D-04-0.223D-03 0.105D-02 0.309D-02 0.189D-03
 Coeff:     -0.680D-02-0.477D-01 0.839D-02 0.306D+00 0.736D+00
 Gap=     0.241 Goal=   None    Shift=    0.000
 RMSDP=2.54D-08 MaxDP=1.64D-06 DE=-3.68D-11 OVMax= 1.27D-06

 Cycle  12  Pass 1  IDiag  1:
 RMSU=  1.10D-08    CP:  1.00D+00  9.94D-01  1.37D+00  1.32D+00  1.24D+00
                    CP:  1.51D+00  1.37D+00  1.31D+00  1.18D+00  1.27D+00
                    CP:  1.04D+00
 E= -633.330614503123     Delta-E=       -0.000000000004 Rises=F Damp=F
 DIIS: error= 4.02D-08 at cycle  12 NSaved=  12.
 NSaved=12 IEnMin=12 EnMin= -633.330614503123     IErMin=12 ErrMin= 4.02D-08
 ErrMax= 4.02D-08  0.00D+00 EMaxC= 1.00D-01 BMatC= 5.65D-13 BMatP= 3.69D-12
 IDIUse=1 WtCom= 1.00D+00 WtEn= 0.00D+00
 Coeff-Com: -0.794D-05 0.129D-04-0.114D-03 0.185D-04 0.102D-02 0.229D-02
 Coeff-Com:  0.827D-03-0.194D-01-0.276D-01 0.192D-02 0.309D+00 0.732D+00
 Coeff:     -0.794D-05 0.129D-04-0.114D-03 0.185D-04 0.102D-02 0.229D-02
 Coeff:      0.827D-03-0.194D-01-0.276D-01 0.192D-02 0.309D+00 0.732D+00
 Gap=     0.241 Goal=   None    Shift=    0.000
 RMSDP=7.32D-09 MaxDP=3.40D-07 DE=-3.64D-12 OVMax= 5.32D-07

 Error on total polarization charges =  0.00816
 SCF Done:  E(RCAM-B3LYP) =  -633.330614503     A.U. after   12 cycles
            NFock= 12  Conv=0.73D-08     -V/T= 2.0042
 KE= 6.307047591103D+02 PE=-3.277675750381D+03 EE= 1.112900990722D+03
 Leave Link  502 at Sat Jan 24 23:47:31 2026, MaxMem=  2147483648 cpu:             767.6 elap:              48.7
 (Enter /data/home/wyx/g16/l601.exe)
 Copying SCF densities to generalized density rwf, IOpCl= 0 IROHF=0.

 **********************************************************************

            Population analysis using the SCF density.

 **********************************************************************

 Orbital symmetries:
       Occupied  (A) (A) (A) (A) (A) (A) (A) (A) (A) (A) (A) (A)
                 (A) (A) (A) (A) (A) (A) (A) (A) (A) (A) (A) (A)
                 (A) (A) (A) (A) (A) (A) (A) (A) (A) (A) (A) (A)
                 (A) (A) (A) (A) (A) (A) (A) (A) (A) (A) (A) (A)
                 (A) (A) (A) (A)
       Virtual   (A) (A) (A) (A) (A) (A) (A) (A) (A) (A) (A) (A)
                 (A) (A) (A) (A) (A) (A) (A) (A) (A) (A) (A) (A)
                 (A) (A) (A) (A) (A) (A) (A) (A) (A) (A) (A) (A)
                 (A) (A) (A) (A) (A) (A) (A) (A) (A) (A) (A) (A)
                 (A) (A) (A) (A) (A) (A) (A) (A) (A) (A) (A) (A)
                 (A) (A) (A) (A) (A) (A) (A) (A) (A) (A) (A) (A)
                 (A) (A) (A) (A) (A) (A) (A) (A) (A) (A) (A) (A)
                 (A) (A) (A) (A) (A) (A) (A) (A) (A) (A) (A) (A)
                 (A) (A) (A) (A) (A) (A) (A) (A) (A) (A) (A) (A)
                 (A) (A) (A) (A) (A) (A) (A) (A) (A) (A) (A) (A)
                 (A) (A) (A) (A) (A) (A) (A) (A) (A) (A) (A) (A)
                 (A) (A) (A) (A) (A) (A) (A) (A) (A) (A) (A) (A)
                 (A) (A) (A) (A) (A) (A) (A) (A) (A) (A) (A) (A)
                 (A) (A) (A) (A) (A) (A) (A) (A) (A) (A) (A) (A)
                 (A) (A) (A) (A) (A) (A) (A) (A) (A) (A) (A) (A)
                 (A) (A) (A) (A) (A) (A) (A) (A) (A) (A) (A) (A)
                 (A) (A) (A) (A) (A) (A) (A) (A) (A) (A) (A) (A)
                 (A) (A) (A) (A) (A) (A) (A) (A) (A) (A) (A) (A)
                 (A) (A) (A) (A) (A) (A) (A) (A) (A) (A) (A) (A)
                 (A) (A) (A) (A) (A) (A) (A) (A) (A) (A) (A) (A)
                 (A) (A) (A) (A) (A) (A) (A) (A) (A) (A) (A) (A)
                 (A) (A) (A) (A) (A) (A) (A) (A) (A) (A) (A) (A)
                 (A) (A) (A) (A) (A) (A) (A) (A) (A) (A) (A) (A)
                 (A) (A) (A) (A) (A) (A) (A) (A) (A) (A) (A) (A)
                 (A) (A) (A) (A) (A) (A) (A) (A) (A) (A) (A) (A)
                 (A) (A) (A) (A)
 The electronic state is 1-A.
 Alpha  occ. eigenvalues --  -19.18397 -19.17198 -14.44276 -10.33949 -10.32908
 Alpha  occ. eigenvalues --  -10.32337 -10.31502 -10.26068 -10.25381 -10.25157
 Alpha  occ. eigenvalues --  -10.24745 -10.24666 -10.24626 -10.23426  -1.12544
 Alpha  occ. eigenvalues --   -1.11295  -1.07655  -0.91437  -0.90435  -0.83952
 Alpha  occ. eigenvalues --   -0.82554  -0.81734  -0.78511  -0.74244  -0.71211
 Alpha  occ. eigenvalues --   -0.68753  -0.61685  -0.58348  -0.57001  -0.55385
 Alpha  occ. eigenvalues --   -0.54690  -0.54023  -0.52673  -0.52033  -0.50917
 Alpha  occ. eigenvalues --   -0.50286  -0.49500  -0.49165  -0.48632  -0.48295
 Alpha  occ. eigenvalues --   -0.46942  -0.45229  -0.45033  -0.43581  -0.43334
 Alpha  occ. eigenvalues --   -0.42735  -0.42174  -0.41878  -0.33141  -0.32629
 Alpha  occ. eigenvalues --   -0.31054  -0.26524
 Alpha virt. eigenvalues --   -0.02448   0.02283   0.06193   0.08090   0.08542
 Alpha virt. eigenvalues --    0.09860   0.10794   0.11948   0.12567   0.13350
 Alpha virt. eigenvalues --    0.14155   0.14890   0.15646   0.16065   0.16974
 Alpha virt. eigenvalues --    0.17503   0.17703   0.17890   0.18058   0.19217
 Alpha virt. eigenvalues --    0.19859   0.22023   0.22470   0.23150   0.23336
 Alpha virt. eigenvalues --    0.23885   0.24690   0.25358   0.25769   0.26401
 Alpha virt. eigenvalues --    0.26785   0.27088   0.28601   0.28850   0.30163
 Alpha virt. eigenvalues --    0.31280   0.31739   0.32690   0.33412   0.34086
 Alpha virt. eigenvalues --    0.35342   0.35668   0.36739   0.37875   0.38742
 Alpha virt. eigenvalues --    0.39962   0.40621   0.41632   0.42003   0.42514
 Alpha virt. eigenvalues --    0.43911   0.44005   0.45092   0.45687   0.46278
 Alpha virt. eigenvalues --    0.47138   0.47560   0.47920   0.48202   0.48696
 Alpha virt. eigenvalues --    0.49316   0.50136   0.50591   0.51208   0.51539
 Alpha virt. eigenvalues --    0.52848   0.53114   0.53319   0.54161   0.54232
 Alpha virt. eigenvalues --    0.54403   0.55742   0.55961   0.56496   0.57843
 Alpha virt. eigenvalues --    0.58399   0.58906   0.60281   0.60931   0.62050
 Alpha virt. eigenvalues --    0.63047   0.65396   0.65733   0.66527   0.67586
 Alpha virt. eigenvalues --    0.68547   0.70073   0.71157   0.72171   0.72903
 Alpha virt. eigenvalues --    0.73365   0.73567   0.74840   0.75944   0.77103
 Alpha virt. eigenvalues --    0.77932   0.79461   0.81635   0.83309   0.83958
 Alpha virt. eigenvalues --    0.88853   0.93014   0.97900   0.99492   1.24888
 Alpha virt. eigenvalues --    1.25595   1.27107   1.27601   1.29150   1.31403
 Alpha virt. eigenvalues --    1.32247   1.32748   1.33839   1.35146   1.35697
 Alpha virt. eigenvalues --    1.36546   1.37245   1.37825   1.39056   1.39674
 Alpha virt. eigenvalues --    1.39913   1.40035   1.41065   1.41471   1.41742
 Alpha virt. eigenvalues --    1.42981   1.43938   1.44642   1.45116   1.46783
 Alpha virt. eigenvalues --    1.47861   1.48593   1.49395   1.50359   1.50811
 Alpha virt. eigenvalues --    1.52042   1.52296   1.53951   1.54090   1.57282
 Alpha virt. eigenvalues --    1.58169   1.60235   1.60506   1.60874   1.62107
 Alpha virt. eigenvalues --    1.62335   1.63158   1.64126   1.65292   1.65761
 Alpha virt. eigenvalues --    1.66893   1.67298   1.67601   1.68192   1.68552
 Alpha virt. eigenvalues --    1.68913   1.69696   1.70549   1.71976   1.72125
 Alpha virt. eigenvalues --    1.73005   1.74828   1.75940   1.76920   1.78486
 Alpha virt. eigenvalues --    1.79491   1.83177   1.84240   1.85826   1.86510
 Alpha virt. eigenvalues --    1.87086   1.87358   1.88619   1.88947   1.90625
 Alpha virt. eigenvalues --    1.91426   1.94242   1.95055   1.97790   1.99427
 Alpha virt. eigenvalues --    2.00648   2.03452   2.04039   2.06090   2.09153
 Alpha virt. eigenvalues --    2.11124   2.12758   2.14236   2.16315   2.19177
 Alpha virt. eigenvalues --    2.20556   2.20971   2.21416   2.22384   2.25987
 Alpha virt. eigenvalues --    2.26678   2.27082   2.28623   2.30080   2.30950
 Alpha virt. eigenvalues --    2.32673   2.34363   2.35544   2.35976   2.37666
 Alpha virt. eigenvalues --    2.39103   2.40064   2.41303   2.43872   2.44513
 Alpha virt. eigenvalues --    2.45577   2.47232   2.49948   2.50205   2.51549
 Alpha virt. eigenvalues --    2.52850   2.53146   2.54916   2.56519   2.58517
 Alpha virt. eigenvalues --    2.58887   2.59814   2.60475   2.61100   2.62330
 Alpha virt. eigenvalues --    2.64241   2.65328   2.66866   2.67350   2.68990
 Alpha virt. eigenvalues --    2.70008   2.71822   2.72819   2.73699   2.74498
 Alpha virt. eigenvalues --    2.76277   2.76550   2.77041   2.77720   2.79229
 Alpha virt. eigenvalues --    2.80769   2.81049   2.82572   2.83414   2.84401
 Alpha virt. eigenvalues --    2.85327   2.85747   2.87381   2.90355   2.91832
 Alpha virt. eigenvalues --    2.97272   2.99709   3.01013   3.03627   3.09687
 Alpha virt. eigenvalues --    3.11644   3.14751   3.16512   3.16973   3.19248
 Alpha virt. eigenvalues --    3.20384   3.21763   3.24723   3.25987   3.26916
 Alpha virt. eigenvalues --    3.27623   3.29241   3.33299   3.34667   3.36292
 Alpha virt. eigenvalues --    3.36731   3.38459   3.39705   3.40146   3.41240
 Alpha virt. eigenvalues --    3.42579   3.44675   3.44906   3.46040   3.47877
 Alpha virt. eigenvalues --    3.48194   3.49226   3.54946   3.57784   3.58991
 Alpha virt. eigenvalues --    3.60218   3.89280   3.98943   4.33750   4.35944
 Alpha virt. eigenvalues --   21.62596  21.78592  22.08060  22.10629  22.11625
 Alpha virt. eigenvalues --   22.14224  22.15046  22.17581  22.20852  22.24659
 Alpha virt. eigenvalues --   22.30538  31.93156  43.62330  43.65064
          Condensed to atoms (all electrons):
               1          2          3          4          5          6
     1  O    7.954930   0.000000  -0.000254   0.000017   0.015564   0.017514
     2  O    0.000000   7.950790   0.000505   0.000036  -0.194273   0.000745
     3  N   -0.000254   0.000505   6.416902   0.375586  -0.116666   0.331581
     4  H    0.000017   0.000036   0.375586   0.404098   0.016213  -0.046943
     5  C    0.015564  -0.194273  -0.116666   0.016213   6.929502  -0.055227
     6  C    0.017514   0.000745   0.331581  -0.046943  -0.055227   5.654881
     7  C   -0.000446  -0.029018   0.364392  -0.040552   0.333221  -0.082481
     8  C   -0.000133   0.706685   0.005249  -0.000548  -0.184267   0.022844
     9  C   -0.032254   0.017398   0.017540  -0.000232  -0.436165  -0.146793
    10  H    0.003166   0.000053   0.003707   0.000003  -0.026106  -0.014118
    11  H    0.018297  -0.000033  -0.001281   0.000018  -0.104912   0.024571
    12  C   -0.219623  -0.002039  -0.097742   0.014844   0.130712  -0.188376
    13  C    0.710928  -0.000026  -0.000189   0.000348   0.074599   0.186548
    14  C   -0.000004  -0.006965  -0.035665  -0.007552  -0.067295   0.008643
    15  H   -0.000000   0.004169   0.002534   0.000858   0.017320   0.006519
    16  H   -0.000000   0.000731  -0.003193   0.000913  -0.004110  -0.002141
    17  H   -0.000000   0.001115   0.002287   0.000770  -0.012514  -0.000719
    18  C   -0.000119  -0.105199  -0.000537   0.000020  -0.270469   0.000284
    19  H   -0.000004   0.009014   0.000002  -0.000001   0.021487   0.000033
    20  H    0.000018   0.001162   0.000011  -0.000000   0.003949   0.000258
    21  H    0.000067   0.003339   0.000116   0.000001   0.040760  -0.001015
    22  C   -0.107291   0.000000  -0.000044   0.000109   0.003834  -0.007854
    23  H    0.004684  -0.000000  -0.000099  -0.000051  -0.000544  -0.034828
    24  H    0.001208  -0.000000  -0.000046  -0.000017  -0.000108   0.011401
    25  H    0.007850   0.000000   0.000034  -0.000002  -0.000129  -0.001400
    26  C    0.000900   0.000001  -0.030792  -0.005840  -0.000430   0.174338
    27  H   -0.000237   0.000000   0.003458   0.000915   0.000078  -0.043873
    28  H   -0.000044  -0.000000  -0.002500   0.000419   0.000474  -0.035204
    29  H    0.000026  -0.000000  -0.000628   0.000760  -0.000619  -0.048379
               7          8          9         10         11         12
     1  O   -0.000446  -0.000133  -0.032254   0.003166   0.018297  -0.219623
     2  O   -0.029018   0.706685   0.017398   0.000053  -0.000033  -0.002039
     3  N    0.364392   0.005249   0.017540   0.003707  -0.001281  -0.097742
     4  H   -0.040552  -0.000548  -0.000232   0.000003   0.000018   0.014844
     5  C    0.333221  -0.184267  -0.436165  -0.026106  -0.104912   0.130712
     6  C   -0.082481   0.022844  -0.146793  -0.014118   0.024571  -0.188376
     7  C    5.473338  -0.153677  -0.171953  -0.002819   0.018353  -0.007714
     8  C   -0.153677   5.276043   0.075321  -0.006073  -0.007024  -0.027956
     9  C   -0.171953   0.075321   6.237519   0.392593   0.519786   0.050715
    10  H   -0.002819  -0.006073   0.392593   0.549938  -0.032664  -0.028170
    11  H    0.018353  -0.007024   0.519786  -0.032664   0.500118  -0.103233
    12  C   -0.007714  -0.027956   0.050715  -0.028170  -0.103233   7.260197
    13  C    0.009753  -0.004726  -0.265914   0.002983  -0.001653  -0.376364
    14  C    0.240759  -0.032067   0.011830  -0.001314   0.000468  -0.005414
    15  H   -0.073793   0.005278  -0.000213   0.000079  -0.000003  -0.001080
    16  H   -0.022778  -0.002189   0.000650  -0.000069   0.000049   0.000939
    17  H   -0.027194  -0.007638  -0.000764   0.000190  -0.000052  -0.000063
    18  C    0.004079   0.301081  -0.000122  -0.007741   0.006502  -0.003614
    19  H    0.000105  -0.048316   0.000216  -0.000036   0.000420  -0.000206
    20  H    0.001943  -0.025157  -0.009284   0.001083  -0.002430  -0.004179
    21  H   -0.000919  -0.062380  -0.008481   0.001590  -0.004245   0.006804
    22  C    0.000038  -0.000047   0.002348   0.001356   0.001407  -0.252320
    23  H    0.000010  -0.000011   0.003425  -0.000111  -0.000099   0.064515
    24  H    0.000045   0.000003  -0.001850   0.000135  -0.000115  -0.012103
    25  H    0.000004   0.000004   0.000220  -0.000030  -0.000153   0.024764
    26  C    0.001526   0.000354   0.018478  -0.000682  -0.000000  -0.073539
    27  H   -0.000795   0.000004  -0.001041  -0.000090   0.000003  -0.008786
    28  H   -0.000869  -0.000007  -0.000194  -0.000021   0.000041  -0.020507
    29  H    0.003894  -0.000007  -0.000434   0.000100  -0.000008   0.024812
              13         14         15         16         17         18
     1  O    0.710928  -0.000004  -0.000000  -0.000000  -0.000000  -0.000119
     2  O   -0.000026  -0.006965   0.004169   0.000731   0.001115  -0.105199
     3  N   -0.000189  -0.035665   0.002534  -0.003193   0.002287  -0.000537
     4  H    0.000348  -0.007552   0.000858   0.000913   0.000770   0.000020
     5  C    0.074599  -0.067295   0.017320  -0.004110  -0.012514  -0.270469
     6  C    0.186548   0.008643   0.006519  -0.002141  -0.000719   0.000284
     7  C    0.009753   0.240759  -0.073793  -0.022778  -0.027194   0.004079
     8  C   -0.004726  -0.032067   0.005278  -0.002189  -0.007638   0.301081
     9  C   -0.265914   0.011830  -0.000213   0.000650  -0.000764  -0.000122
    10  H    0.002983  -0.001314   0.000079  -0.000069   0.000190  -0.007741
    11  H   -0.001653   0.000468  -0.000003   0.000049  -0.000052   0.006502
    12  C   -0.376364  -0.005414  -0.001080   0.000939  -0.000063  -0.003614
    13  C    5.424353  -0.000129  -0.000008  -0.000026   0.000001   0.000513
    14  C   -0.000129   5.064495   0.387482   0.407827   0.426954   0.002210
    15  H   -0.000008   0.387482   0.578064  -0.026940  -0.028946   0.000305
    16  H   -0.000026   0.407827  -0.026940   0.508056  -0.023997  -0.000139
    17  H    0.000001   0.426954  -0.028946  -0.023997   0.502849  -0.000373
    18  C    0.000513   0.002210   0.000305  -0.000139  -0.000373   5.359794
    19  H   -0.000016  -0.000003  -0.000005  -0.000013   0.000036   0.391768
    20  H   -0.000029  -0.000306  -0.000006  -0.000004   0.000033   0.394916
    21  H    0.000399   0.000052  -0.000018   0.000006  -0.000040   0.382117
    22  C    0.283141  -0.000023   0.000002   0.000000  -0.000000   0.000029
    23  H   -0.089360  -0.000002   0.000000   0.000000   0.000000   0.000003
    24  H   -0.021250  -0.000000   0.000000   0.000000  -0.000000  -0.000002
    25  H   -0.042464   0.000000   0.000000  -0.000000   0.000000  -0.000001
    26  C   -0.054057   0.001548   0.000001  -0.000194   0.000058   0.000023
    27  H   -0.005588   0.000099  -0.000013   0.000002  -0.000001  -0.000000
    28  H    0.006365  -0.000114   0.000004  -0.000015   0.000004  -0.000001
    29  H   -0.000384  -0.000255   0.000135   0.000002  -0.000004   0.000000
              19         20         21         22         23         24
     1  O   -0.000004   0.000018   0.000067  -0.107291   0.004684   0.001208
     2  O    0.009014   0.001162   0.003339   0.000000  -0.000000  -0.000000
     3  N    0.000002   0.000011   0.000116  -0.000044  -0.000099  -0.000046
     4  H   -0.000001  -0.000000   0.000001   0.000109  -0.000051  -0.000017
     5  C    0.021487   0.003949   0.040760   0.003834  -0.000544  -0.000108
     6  C    0.000033   0.000258  -0.001015  -0.007854  -0.034828   0.011401
     7  C    0.000105   0.001943  -0.000919   0.000038   0.000010   0.000045
     8  C   -0.048316  -0.025157  -0.062380  -0.000047  -0.000011   0.000003
     9  C    0.000216  -0.009284  -0.008481   0.002348   0.003425  -0.001850
    10  H   -0.000036   0.001083   0.001590   0.001356  -0.000111   0.000135
    11  H    0.000420  -0.002430  -0.004245   0.001407  -0.000099  -0.000115
    12  C   -0.000206  -0.004179   0.006804  -0.252320   0.064515  -0.012103
    13  C   -0.000016  -0.000029   0.000399   0.283141  -0.089360  -0.021250
    14  C   -0.000003  -0.000306   0.000052  -0.000023  -0.000002  -0.000000
    15  H   -0.000005  -0.000006  -0.000018   0.000002   0.000000   0.000000
    16  H   -0.000013  -0.000004   0.000006   0.000000   0.000000   0.000000
    17  H    0.000036   0.000033  -0.000040  -0.000000   0.000000  -0.000000
    18  C    0.391768   0.394916   0.382117   0.000029   0.000003  -0.000002
    19  H    0.491019  -0.008609  -0.020317  -0.000000   0.000000   0.000000
    20  H   -0.008609   0.508093  -0.027841  -0.000014  -0.000000   0.000000
    21  H   -0.020317  -0.027841   0.539787   0.000012  -0.000000  -0.000000
    22  C   -0.000000  -0.000014   0.000012   5.417017   0.400168   0.400746
    23  H    0.000000  -0.000000  -0.000000   0.400168   0.535004  -0.026237
    24  H    0.000000   0.000000  -0.000000   0.400746  -0.026237   0.490235
    25  H   -0.000000  -0.000000  -0.000000   0.383922  -0.021641  -0.007977
    26  C    0.000000   0.000007  -0.000014  -0.029014   0.015578  -0.015647
    27  H   -0.000000  -0.000000  -0.000000   0.009300  -0.010670  -0.000821
    28  H   -0.000000   0.000000  -0.000000  -0.011271  -0.001218   0.001169
    29  H    0.000000  -0.000000   0.000000   0.001971   0.000728   0.000219
              25         26         27         28         29
     1  O    0.007850   0.000900  -0.000237  -0.000044   0.000026
     2  O    0.000000   0.000001   0.000000  -0.000000  -0.000000
     3  N    0.000034  -0.030792   0.003458  -0.002500  -0.000628
     4  H   -0.000002  -0.005840   0.000915   0.000419   0.000760
     5  C   -0.000129  -0.000430   0.000078   0.000474  -0.000619
     6  C   -0.001400   0.174338  -0.043873  -0.035204  -0.048379
     7  C    0.000004   0.001526  -0.000795  -0.000869   0.003894
     8  C    0.000004   0.000354   0.000004  -0.000007  -0.000007
     9  C    0.000220   0.018478  -0.001041  -0.000194  -0.000434
    10  H   -0.000030  -0.000682  -0.000090  -0.000021   0.000100
    11  H   -0.000153  -0.000000   0.000003   0.000041  -0.000008
    12  C    0.024764  -0.073539  -0.008786  -0.020507   0.024812
    13  C   -0.042464  -0.054057  -0.005588   0.006365  -0.000384
    14  C    0.000000   0.001548   0.000099  -0.000114  -0.000255
    15  H    0.000000   0.000001  -0.000013   0.000004   0.000135
    16  H   -0.000000  -0.000194   0.000002  -0.000015   0.000002
    17  H    0.000000   0.000058  -0.000001   0.000004  -0.000004
    18  C   -0.000001   0.000023  -0.000000  -0.000001   0.000000
    19  H   -0.000000   0.000000  -0.000000  -0.000000   0.000000
    20  H   -0.000000   0.000007  -0.000000   0.000000  -0.000000
    21  H   -0.000000  -0.000014  -0.000000  -0.000000   0.000000
    22  C    0.383922  -0.029014   0.009300  -0.011271   0.001971
    23  H   -0.021641   0.015578  -0.010670  -0.001218   0.000728
    24  H   -0.007977  -0.015647  -0.000821   0.001169   0.000219
    25  H    0.494642   0.001950   0.000907   0.000094  -0.000044
    26  C    0.001950   5.255772   0.426189   0.430752   0.388905
    27  H    0.000907   0.426189   0.510547  -0.024600  -0.026916
    28  H    0.000094   0.430752  -0.024600   0.476493  -0.017951
    29  H   -0.000044   0.388905  -0.026916  -0.017951   0.516993
 Mulliken charges:
               1
     1  O   -0.374761
     2  O   -0.358190
     3  N   -0.234267
     4  H    0.285813
     5  C   -0.113878
     6  C    0.269193
     7  C    0.163547
     8  C    0.169361
     9  C   -0.272344
    10  H    0.163066
    11  H    0.167873
    12  C   -0.145274
    13  C    0.162253
    14  C   -0.395260
    15  H    0.128275
    16  H    0.166633
    17  H    0.168010
    18  C   -0.455328
    19  H    0.163425
    20  H    0.166389
    21  H    0.150220
    22  C   -0.497523
    23  H    0.160754
    24  H    0.181012
    25  H    0.159452
    26  C   -0.506170
    27  H    0.171933
    28  H    0.198702
    29  H    0.157084
 Sum of Mulliken charges =  -0.00000
 Mulliken charges with hydrogens summed into heavy atoms:
               1
     1  O   -0.374761
     2  O   -0.358190
     3  N    0.051545
     5  C   -0.113878
     6  C    0.269193
     7  C    0.163547
     8  C    0.169361
     9  C    0.058595
    12  C   -0.145274
    13  C    0.162253
    14  C    0.067658
    18  C    0.024705
    22  C    0.003695
    26  C    0.021549
 Electronic spatial extent (au):  <R**2>=           3179.9684
 Charge=             -0.0000 electrons
 Dipole moment (field-independent basis, Debye):
    X=             -3.4506    Y=              7.2233    Z=             -0.3700  Tot=              8.0137
 Quadrupole moment (field-independent basis, Debye-Ang):
   XX=            -95.6191   YY=            -78.7892   ZZ=            -85.0882
   XY=            -13.0983   XZ=             -5.7779   YZ=             -1.4040
 Traceless Quadrupole moment (field-independent basis, Debye-Ang):
   XX=             -9.1203   YY=              7.7096   ZZ=              1.4106
   XY=            -13.0983   XZ=             -5.7779   YZ=             -1.4040
 Octapole moment (field-independent basis, Debye-Ang**2):
  XXX=            -98.4668  YYY=             63.3671  ZZZ=              2.2990  XYY=             35.3263
  XXY=             29.0581  XXZ=            -10.6921  XZZ=             -2.6773  YZZ=             -1.2253
  YYZ=              2.9464  XYZ=              5.0687
 Hexadecapole moment (field-independent basis, Debye-Ang**3):
 XXXX=          -2972.3310 YYYY=          -1272.4625 ZZZZ=           -162.0139 XXXY=            -45.5550
 XXXZ=            -66.8327 YYYX=            -90.2467 YYYZ=            -22.4441 ZZZX=              2.3996
 ZZZY=              6.3442 XXYY=           -686.5381 XXZZ=           -486.5355 YYZZ=           -242.7566
 XXYZ=             -5.9037 YYXZ=             -5.7737 ZZXY=              1.1435
 N-N= 9.007393860460D+02 E-N=-3.277675751200D+03  KE= 6.307047591103D+02
 No NMR shielding tensors so no spin-rotation constants.
 Leave Link  601 at Sat Jan 24 23:47:31 2026, MaxMem=  2147483648 cpu:               1.8 elap:               0.1
 (Enter /data/home/wyx/g16/l9999.exe)
 1\1\GINC-CN015\SP\RCAM-B3LYP\TZVP\C11H15N1O2\WYX\24-Jan-2026\0\\#p CAM
 -B3LYP TZVP em=gd3bj scrf=(Solvent=Water,NonEquilibrium=Read) Geom=Che
 ck Guess=Read\\Title Card Required\\0,1\O,0,2.746842,-1.558273,0.73385
 4\O,0,-3.214155,-1.637944,-1.138025\N,0,-0.713144,1.513159,0.142165\H,
 0,-1.020715,2.470417,0.084584\C,0,-1.24766,-0.757531,-0.150641\C,0,0.6
 40538,1.297188,0.292423\C,0,-1.618465,0.541629,-0.222485\C,0,-2.14903,
 -1.832974,-0.561083\C,0,0.092392,-1.108731,0.45532\H,0,-0.027787,-1.41
 544,1.502958\H,0,0.522157,-1.974184,-0.043742\C,0,1.091138,0.024223,0.
 367923\C,0,2.49191,-0.390429,0.454266\C,0,-2.938366,1.082053,-0.669893
 \H,0,-3.042371,2.124383,-0.369161\H,0,-3.025132,1.025379,-1.755047\H,0
 ,-3.760007,0.502889,-0.260133\C,0,-1.72657,-3.248008,-0.251372\H,0,-2.
 556804,-3.919421,-0.454159\H,0,-0.879426,-3.533296,-0.878665\H,0,-1.40
 7582,-3.354901,0.78582\C,0,3.64644,0.539674,0.172721\H,0,3.447097,1.23
 3613,-0.63949\H,0,3.890924,1.119744,1.064145\H,0,4.511405,-0.071324,-0
 .074522\C,0,1.420131,2.575934,0.345756\H,0,2.271081,2.516962,1.013098\
 H,0,1.776933,2.853738,-0.647137\H,0,0.778227,3.381471,0.700522\\Versio
 n=ES64L-G16RevA.03\State=1-A\HF=-633.3306145\RMSD=7.320e-09\Dipole=0.2
 76757,3.1338407,0.206781\Quadrupole=-9.3839882,10.5105398,-1.1265516,3
 .5241798,-6.4784923,0.2276069\PG=C01 [X(C11H15N1O2)]\\@


 Make no judgements where you have no compassion.
                               -- Anne McCaffrey
 Job cpu time:       0 days  0 hours 13 minutes  3.7 seconds.
 Elapsed time:       0 days  0 hours  0 minutes 50.0 seconds.
 File lengths (MBytes):  RWF=    336 Int=      0 D2E=      0 Chk=     67 Scr=      1
 Normal termination of Gaussian 16 at Sat Jan 24 23:47:32 2026.
