 Entering Gaussian System, Link 0=g16
 Input=DDL-S1-cLR-gs-15.gjf
 Output=DDL-S1-cLR-gs-15.log
 Initial command:
 /data/home/wyx/g16/l1.exe "/scr/tmp/wyx/13119/Gau-1531749.inp" -scrdir="/scr/tmp/wyx/13119/"
 Entering Link 1 = /data/home/wyx/g16/l1.exe PID=   1531750.
  
 Copyright (c) 1988,1990,1992,1993,1995,1998,2003,2009,2016,
            Gaussian, Inc.  All Rights Reserved.
  
 This is part of the Gaussian(R) 16 program.  It is based on
 the Gaussian(R) 09 system (copyright 2009, Gaussian, Inc.),
 the Gaussian(R) 03 system (copyright 2003, Gaussian, Inc.),
 the Gaussian(R) 98 system (copyright 1998, Gaussian, Inc.),
 the Gaussian(R) 94 system (copyright 1995, Gaussian, Inc.),
 the Gaussian 92(TM) system (copyright 1992, Gaussian, Inc.),
 the Gaussian 90(TM) system (copyright 1990, Gaussian, Inc.),
 the Gaussian 88(TM) system (copyright 1988, Gaussian, Inc.),
 the Gaussian 86(TM) system (copyright 1986, Carnegie Mellon
 University), and the Gaussian 82(TM) system (copyright 1983,
 Carnegie Mellon University). Gaussian is a federally registered
 trademark of Gaussian, Inc.
  
 This software contains proprietary and confidential information,
 including trade secrets, belonging to Gaussian, Inc.
  
 This software is provided under written license and may be
 used, copied, transmitted, or stored only in accord with that
 written license.
  
 The following legend is applicable only to US Government
 contracts under FAR:
  
                    RESTRICTED RIGHTS LEGEND
  
 Use, reproduction and disclosure by the US Government is
 subject to restrictions as set forth in subparagraphs (a)
 and (c) of the Commercial Computer Software - Restricted
 Rights clause in FAR 52.227-19.
  
 Gaussian, Inc.
 340 Quinnipiac St., Bldg. 40, Wallingford CT 06492
  
  
 ---------------------------------------------------------------
 Warning -- This program may not be used in any manner that
 competes with the business of Gaussian, Inc. or will provide
 assistance to any competitor of Gaussian, Inc.  The licensee
 of this program is prohibited from giving any competitor of
 Gaussian, Inc. access to this program.  By using this program,
 the user acknowledges that Gaussian, Inc. is engaged in the
 business of creating and licensing software in the field of
 computational chemistry and represents and warrants to the
 licensee that it is not a competitor of Gaussian, Inc. and that
 it will not use this program in any manner prohibited above.
 ---------------------------------------------------------------
  

 Cite this work as:
 Gaussian 16, Revision A.03,
 M. J. Frisch, G. W. Trucks, H. B. Schlegel, G. E. Scuseria, 
 M. A. Robb, J. R. Cheeseman, G. Scalmani, V. Barone, 
 G. A. Petersson, H. Nakatsuji, X. Li, M. Caricato, A. V. Marenich, 
 J. Bloino, B. G. Janesko, R. Gomperts, B. Mennucci, H. P. Hratchian, 
 J. V. Ortiz, A. F. Izmaylov, J. L. Sonnenberg, D. Williams-Young, 
 F. Ding, F. Lipparini, F. Egidi, J. Goings, B. Peng, A. Petrone, 
 T. Henderson, D. Ranasinghe, V. G. Zakrzewski, J. Gao, N. Rega, 
 G. Zheng, W. Liang, M. Hada, M. Ehara, K. Toyota, R. Fukuda, 
 J. Hasegawa, M. Ishida, T. Nakajima, Y. Honda, O. Kitao, H. Nakai, 
 T. Vreven, K. Throssell, J. A. Montgomery, Jr., J. E. Peralta, 
 F. Ogliaro, M. J. Bearpark, J. J. Heyd, E. N. Brothers, K. N. Kudin, 
 V. N. Staroverov, T. A. Keith, R. Kobayashi, J. Normand, 
 K. Raghavachari, A. P. Rendell, J. C. Burant, S. S. Iyengar, 
 J. Tomasi, M. Cossi, J. M. Millam, M. Klene, C. Adamo, R. Cammi, 
 J. W. Ochterski, R. L. Martin, K. Morokuma, O. Farkas, 
 J. B. Foresman, and D. J. Fox, Gaussian, Inc., Wallingford CT, 2016.
 
 ******************************************
 Gaussian 16:  ES64L-G16RevA.03 25-Dec-2016
                24-Jan-2026 
 ******************************************
 %nprocshared=16
 Will use up to   16 processors via shared memory.
 %mem=16GB
 %oldchk=DDL-S1-cLR-15.chk
 %chk=DDL-S1-cLR-gs-15.chk
 Copying data from "DDL-S1-cLR-15.chk" to current chk file "DDL-S1-cLR-gs-15.chk"
 IOpt=  2 FromEx=T IUOpen= 4 IOptOp= 5 NList=   0 IFRang= 0 IUIn= 4 IUOut= 2.
 ----------------------------------------------------------------------
 #p CAM-B3LYP TZVP em=gd3bj scrf=(Solvent=Water,NonEquilibrium=Read) Ge
 om=Check Guess=Read
 ----------------------------------------------------------------------
 1/29=2,38=1,172=1/1;
 2/12=2,40=1/2;
 3/5=19,7=101,11=2,14=-4,25=1,30=1,70=6002201,72=1,74=-40,116=-2,124=41/1,2,3;
 4/5=1/1;
 5/5=2,38=6,53=1/2;
 6/7=2,8=2,9=2,10=2,28=1/1;
 99/5=1,9=1/99;
 Leave Link    1 at Sat Jan 24 23:44:00 2026, MaxMem=  2147483648 cpu:               0.8 elap:               0.1
 (Enter /data/home/wyx/g16/l101.exe)
 -------------------
 Title Card Required
 -------------------
 Structure from the checkpoint file:  "DDL-S1-cLR-gs-15.chk"
 Charge =  0 Multiplicity = 1
 Z-Matrix found in chk file.
 O,0,2.748457,-1.558493,0.728631
 O,0,-3.229811,-1.640047,-1.109803
 N,0,-0.708239,1.514503,0.12575
 H,0,-1.015135,2.471748,0.065893
 C,0,-1.246662,-0.758185,-0.152331
 C,0,0.642999,1.298798,0.2814
 C,0,-1.617029,0.541347,-0.226974
 C,0,-2.150747,-1.830756,-0.548098
 C,0,0.099297,-1.110256,0.437972
 H,0,-0.011436,-1.430557,1.482325
 H,0,0.527635,-1.967623,-0.076512
 C,0,1.09445,0.025882,0.359932
 C,0,2.493394,-0.388562,0.456048
 C,0,-2.93851,1.079914,-0.665233
 H,0,-3.066702,2.107657,-0.324655
 H,0,-3.017391,1.069499,-1.752774
 H,0,-3.762425,0.48073,-0.289131
 C,0,-1.736888,-3.247363,-0.248883
 H,0,-2.579158,-3.920175,-0.391694
 H,0,-0.933239,-3.558549,-0.920409
 H,0,-1.358799,-3.35994,0.767697
 C,0,3.649444,0.544916,0.194007
 H,0,3.462531,1.237932,-0.621924
 H,0,3.877655,1.126336,1.088789
 H,0,4.519314,-0.064837,-0.038473
 C,0,1.422179,2.577496,0.336861
 H,0,2.261569,2.523773,1.019304
 H,0,1.796621,2.847159,-0.651685
 H,0,0.776628,3.387655,0.673968
 Recover connectivity data from disk.
 ITRead=  0  0  0  0  0  0  0  0  0  0  0  0  0  0  0  0  0  0  0  0
 ITRead=  0  0  0  0  0  0  0  0  0
 MicOpt= -1 -1 -1 -1 -1 -1 -1 -1 -1 -1 -1 -1 -1 -1 -1 -1 -1 -1 -1 -1
 MicOpt= -1 -1 -1 -1 -1 -1 -1 -1 -1
 NAtoms=     29 NQM=       29 NQMF=       0 NMMI=      0 NMMIF=      0
                NMic=       0 NMicF=      0.
                    Isotopes and Nuclear Properties:
 (Nuclear quadrupole moments (NQMom) in fm**2, nuclear magnetic moments (NMagM)
  in nuclear magnetons)

  Atom         1           2           3           4           5           6           7           8           9          10
 IAtWgt=          16          16          14           1          12          12          12          12          12           1
 AtmWgt=  15.9949146  15.9949146  14.0030740   1.0078250  12.0000000  12.0000000  12.0000000  12.0000000  12.0000000   1.0078250
 NucSpn=           0           0           2           1           0           0           0           0           0           1
 AtZEff=   5.6000000   5.6000000   4.5500000   1.0000000   3.6000000   3.6000000   3.6000000   3.6000000   3.6000000   1.0000000
 NQMom=    0.0000000   0.0000000   2.0440000   0.0000000   0.0000000   0.0000000   0.0000000   0.0000000   0.0000000   0.0000000
 NMagM=    0.0000000   0.0000000   0.4037610   2.7928460   0.0000000   0.0000000   0.0000000   0.0000000   0.0000000   2.7928460
 AtZNuc=   8.0000000   8.0000000   7.0000000   1.0000000   6.0000000   6.0000000   6.0000000   6.0000000   6.0000000   1.0000000

  Atom        11          12          13          14          15          16          17          18          19          20
 IAtWgt=           1          12          12          12           1           1           1          12           1           1
 AtmWgt=   1.0078250  12.0000000  12.0000000  12.0000000   1.0078250   1.0078250   1.0078250  12.0000000   1.0078250   1.0078250
 NucSpn=           1           0           0           0           1           1           1           0           1           1
 AtZEff=   1.0000000   3.6000000   3.6000000   3.6000000   1.0000000   1.0000000   1.0000000   3.6000000   1.0000000   1.0000000
 NQMom=    0.0000000   0.0000000   0.0000000   0.0000000   0.0000000   0.0000000   0.0000000   0.0000000   0.0000000   0.0000000
 NMagM=    2.7928460   0.0000000   0.0000000   0.0000000   2.7928460   2.7928460   2.7928460   0.0000000   2.7928460   2.7928460
 AtZNuc=   1.0000000   6.0000000   6.0000000   6.0000000   1.0000000   1.0000000   1.0000000   6.0000000   1.0000000   1.0000000

  Atom        21          22          23          24          25          26          27          28          29
 IAtWgt=           1          12           1           1           1          12           1           1           1
 AtmWgt=   1.0078250  12.0000000   1.0078250   1.0078250   1.0078250  12.0000000   1.0078250   1.0078250   1.0078250
 NucSpn=           1           0           1           1           1           0           1           1           1
 AtZEff=   1.0000000   3.6000000   1.0000000   1.0000000   1.0000000   3.6000000   1.0000000   1.0000000   1.0000000
 NQMom=    0.0000000   0.0000000   0.0000000   0.0000000   0.0000000   0.0000000   0.0000000   0.0000000   0.0000000
 NMagM=    2.7928460   0.0000000   2.7928460   2.7928460   2.7928460   0.0000000   2.7928460   2.7928460   2.7928460
 AtZNuc=   1.0000000   6.0000000   1.0000000   1.0000000   1.0000000   6.0000000   1.0000000   1.0000000   1.0000000
 Leave Link  101 at Sat Jan 24 23:44:03 2026, MaxMem=  2147483648 cpu:               0.8 elap:               0.1
 (Enter /data/home/wyx/g16/l202.exe)
                          Input orientation:                          
 ---------------------------------------------------------------------
 Center     Atomic      Atomic             Coordinates (Angstroms)
 Number     Number       Type             X           Y           Z
 ---------------------------------------------------------------------
      1          8           0        2.748457   -1.558493    0.728631
      2          8           0       -3.229811   -1.640047   -1.109803
      3          7           0       -0.708239    1.514503    0.125750
      4          1           0       -1.015135    2.471748    0.065893
      5          6           0       -1.246662   -0.758185   -0.152331
      6          6           0        0.642999    1.298798    0.281400
      7          6           0       -1.617029    0.541347   -0.226974
      8          6           0       -2.150747   -1.830756   -0.548098
      9          6           0        0.099297   -1.110256    0.437972
     10          1           0       -0.011436   -1.430557    1.482325
     11          1           0        0.527635   -1.967623   -0.076512
     12          6           0        1.094450    0.025882    0.359932
     13          6           0        2.493394   -0.388562    0.456048
     14          6           0       -2.938510    1.079914   -0.665233
     15          1           0       -3.066702    2.107657   -0.324655
     16          1           0       -3.017391    1.069499   -1.752774
     17          1           0       -3.762425    0.480730   -0.289131
     18          6           0       -1.736888   -3.247363   -0.248883
     19          1           0       -2.579158   -3.920175   -0.391694
     20          1           0       -0.933239   -3.558549   -0.920409
     21          1           0       -1.358799   -3.359940    0.767697
     22          6           0        3.649444    0.544916    0.194007
     23          1           0        3.462531    1.237932   -0.621924
     24          1           0        3.877655    1.126336    1.088789
     25          1           0        4.519314   -0.064837   -0.038473
     26          6           0        1.422179    2.577496    0.336861
     27          1           0        2.261569    2.523773    1.019304
     28          1           0        1.796621    2.847159   -0.651685
     29          1           0        0.776628    3.387655    0.673968
 ---------------------------------------------------------------------
                    Distance matrix (angstroms):
                    1          2          3          4          5
     1  O    0.000000
     2  O    6.255092   0.000000
     3  N    4.664281   4.223281   0.000000
     4  H    5.553980   4.816006   1.007018   0.000000
     5  C    4.168640   2.372196   2.352092   3.245565   0.000000
     6  C    3.577301   5.056769   1.377171   2.042465   2.826680
     7  C    4.937608   2.852881   1.377442   2.043158   1.353339
     8  C    5.070144   1.231366   3.704816   4.492008   1.457536
     9  C    2.702489   3.709346   2.763866   3.769768   1.511297
    10  H    2.863814   4.137747   3.316505   4.271027   2.156378
    11  H    2.397435   3.910677   3.700472   4.701961   2.148632
    12  C    2.319897   4.861551   2.349579   3.243311   2.521503
    13  C    1.228046   6.064089   3.739145   4.543498   3.807199
    14  C    6.422277   2.771405   2.405957   2.484174   2.550299
    15  H    6.954577   3.832538   2.473266   2.119910   3.399308
    16  H    6.805051   2.792879   3.009828   3.046782   3.006215
    17  H    6.898250   2.335567   3.250979   3.411422   2.807613
    18  C    4.891435   2.356580   4.886086   5.773062   2.538829
    19  H    5.934320   2.477501   5.770945   6.596380   3.439625
    20  H    4.502715   2.998460   5.184682   6.110972   2.920653
    21  H    4.485119   3.159703   4.959387   5.883810   2.761912
    22  C    2.349879   7.334721   4.464769   5.048504   5.078373
    23  H    3.186517   7.301249   4.246273   4.695198   5.136292
    24  H    2.934810   7.937427   4.701972   5.176470   5.599145
    25  H    2.440367   7.979848   5.463387   6.088947   5.808629
    26  C    4.361067   6.443719   2.390231   2.454609   4.299859
    27  H    4.121462   7.212888   3.261414   3.412988   4.944862
    28  H    4.713919   6.753511   2.941887   2.926059   4.744411
    29  H    5.324986   6.671670   2.452360   2.102155   4.686626
                    6          7          8          9         10
     6  C    0.000000
     7  C    2.437192   0.000000
     8  C    4.276353   2.452519   0.000000
     9  C    2.474605   2.472998   2.560108   0.000000
    10  H    3.052849   3.063990   2.976479   1.097965   0.000000
    11  H    3.287996   3.304112   2.723023   1.087771   1.734650
    12  C    1.352882   2.821751   3.847457   1.512359   2.145685
    13  C    2.510308   4.269289   4.965509   2.500574   2.900547
    14  C    3.710961   1.492795   3.017663   3.904123   4.413868
    15  H    3.844924   2.136450   4.049691   4.578222   5.011864
    16  H    4.193912   2.137294   3.257882   4.389128   5.074634
    17  H    4.516913   2.147152   2.829759   4.239435   4.567384
    18  C    5.158744   3.790669   1.505850   2.900099   3.045497
    19  H    6.170335   4.567056   2.138614   3.969649   4.037740
    20  H    5.246207   4.213973   2.146208   2.984203   3.339341
    21  H    5.093871   4.034364   2.167234   2.701081   2.459390
    22  C    3.100756   5.283273   6.311636   3.924622   4.354802
    23  H    2.961327   5.142290   6.397749   4.236592   4.859747
    24  H    3.338356   5.680229   6.911253   4.438682   4.670932
    25  H    4.121606   6.169092   6.918663   4.566886   4.970484
    26  C    1.498421   3.701432   5.742964   3.919152   4.408155
    27  H    2.159823   4.530645   6.394310   4.268435   4.584503
    28  H    2.144508   4.141275   6.121710   4.441778   5.110961
    29  H    2.129622   3.826586   6.106945   4.554742   4.948702
                   11         12         13         14         15
    11  H    0.000000
    12  C    2.117977   0.000000
    13  C    2.577065   1.462206   0.000000
    14  C    4.652766   4.292635   5.737532   0.000000
    15  H    5.439553   4.702939   6.144532   1.090267   0.000000
    16  H    4.959957   4.739188   6.113394   1.090448   1.766275
    17  H    4.944113   4.921118   6.359735   1.085960   1.769798
    18  C    2.606820   4.370499   5.154120   4.510274   5.518187
    19  H    3.682928   5.443501   6.238729   5.020443   6.047888
    20  H    2.318914   4.312649   4.866751   5.059799   6.083788
    21  H    2.491961   4.201011   4.874998   4.925554   5.831362
    22  C    4.016432   2.612455   1.508807   6.665257   6.915041
    23  H    4.380259   2.835651   2.178700   6.403138   6.593609
    24  H    4.706713   3.080335   2.147430   7.038384   7.154363
    25  H    4.422165   3.449152   2.110379   7.571157   7.896155
    26  C    4.650720   2.572678   3.155821   4.718321   4.561623
    27  H    4.937609   2.834854   2.975348   5.653602   5.510885
    28  H    5.012312   3.078314   3.490337   5.054187   4.930083
    29  H    5.413337   3.391334   4.153864   4.573989   4.172149
                   16         17         18         19         20
    16  H    0.000000
    17  H    1.744699   0.000000
    18  C    4.747281   4.243006   0.000000
    19  H    5.190514   4.558355   1.087423   0.000000
    20  H    5.143476   4.971778   1.092536   1.766172   0.000000
    21  H    5.359443   4.652424   1.090440   1.774071   1.752213
    22  C    6.965044   7.427876   6.602280   7.686063   6.251506
    23  H    6.580014   7.272145   6.876844   7.947395   6.512919
    24  H    7.457840   7.790141   7.241664   8.327637   7.009260
    25  H    7.812008   8.303474   7.022308   8.085586   6.535608
    26  C    5.133265   5.627469   6.652201   7.665587   6.691769
    27  H    6.137324   6.494192   7.134561   8.182177   7.138902
    28  H    5.248541   6.052638   7.056283   8.062992   6.968317
    29  H    5.065324   5.475470   7.154920   8.111801   7.329081
                   21         22         23         24         25
    21  H    0.000000
    22  C    6.376482   0.000000
    23  H    6.805637   1.086716   0.000000
    24  H    6.902914   1.091221   1.763894   0.000000
    25  H    6.786739   1.087437   1.776067   1.761062   0.000000
    26  C    6.570586   3.018691   2.622353   2.949682   4.088404
    27  H    6.912919   2.554053   2.406102   2.137614   3.594052
    28  H    7.106293   3.073837   2.316410   3.212660   4.033461
    29  H    7.078056   4.069963   3.676237   3.860312   5.141495
                   26         27         28         29
    26  C    0.000000
    27  H    1.083139   0.000000
    28  H    1.090939   1.764358   0.000000
    29  H    1.089374   1.752312   1.757805   0.000000
 Stoichiometry    C11H15NO2
 Framework group  C1[X(C11H15NO2)]
 Deg. of freedom    81
 Full point group                 C1      NOp   1
 RotChk:  IX=0 Diff= 5.99D-16
 Largest Abelian subgroup         C1      NOp   1
 Largest concise Abelian subgroup C1      NOp   1
                         Standard orientation:                         
 ---------------------------------------------------------------------
 Center     Atomic      Atomic             Coordinates (Angstroms)
 Number     Number       Type             X           Y           Z
 ---------------------------------------------------------------------
      1          8           0       -2.283915   -2.283570   -0.165908
      2          8           0        3.594252   -0.241630    0.469557
      3          7           0       -0.031240    1.799694   -0.254947
      4          1           0       -0.063011    2.806207   -0.257786
      5          6           0        1.289739   -0.138860   -0.083591
      6          6           0       -1.232582    1.135680   -0.143310
      7          6           0        1.202724    1.211679   -0.084898
      8          6           0        2.561079   -0.818996    0.129756
      9          6           0        0.060089   -0.958902   -0.399038
     10          1           0        0.080000   -1.294189   -1.444368
     11          1           0        0.051026   -1.872933    0.190632
     12          6           0       -1.230121   -0.217135   -0.130024
     13          6           0       -2.396924   -1.079884    0.049650
     14          6           0        2.318487    2.188580    0.085903
     15          1           0        2.024582    3.174554   -0.274871
     16          1           0        2.593919    2.279062    1.137106
     17          1           0        3.213443    1.874337   -0.442882
     18          6           0        2.606706   -2.309399   -0.080492
     19          1           0        3.638665   -2.651459   -0.103822
     20          1           0        2.094364   -2.824327    0.735590
     21          1           0        2.110165   -2.610481   -1.003452
     22          6           0       -3.732867   -0.569818    0.530886
     23          1           0       -3.646931    0.199654    1.293434
     24          1           0       -4.305063   -0.160069   -0.303057
     25          1           0       -4.285064   -1.417436    0.929813
     26          6           0       -2.396562    2.074437   -0.047648
     27          1           0       -3.277411    1.697591   -0.552904
     28          1           0       -2.652679    2.270373    0.994542
     29          1           0       -2.138618    3.028576   -0.505706
 ---------------------------------------------------------------------
 Rotational constants (GHZ):           1.0812039           0.4899769           0.3467656
 Leave Link  202 at Sat Jan 24 23:44:03 2026, MaxMem=  2147483648 cpu:               0.0 elap:               0.0
 (Enter /data/home/wyx/g16/l301.exe)
 Standard basis: TZVP (5D, 7F)
 Ernie: Thresh=  0.10000D-02 Tol=  0.10000D-05 Strict=F.
 There are   370 symmetry adapted cartesian basis functions of A   symmetry.
 There are   356 symmetry adapted basis functions of A   symmetry.
   356 basis functions,   610 primitive gaussians,   370 cartesian basis functions
    52 alpha electrons       52 beta electrons
       nuclear repulsion energy       900.7140420389 Hartrees.
 IExCor=20419 DFT=T Ex+Corr=CAM-B3LYP ExCW=0 ScaHFX=  1.000000
 ScaDFX=  1.000000  1.000000  1.000000  0.810000 ScalE2=  1.000000  1.000000
 IRadAn=      5 IRanWt=     -1 IRanGd=            0 ICorTp=0 IEmpDi=141
 HFx  wShort=  0.000000 wLong=  0.330000 cFull=  0.190000 cShort=  0.000000 cLong=  0.460000
 DFx  wShort=  0.000000 wLong=  0.330000 cFull=  0.190000 cShort=  0.000000 cLong=  0.460000
 NAtoms=   29 NActive=   29 NUniq=   29 SFac= 1.00D+00 NAtFMM=   60 NAOKFM=F Big=F
 Integral buffers will be    131072 words long.
 Raffenetti 2 integral format.
 Two-electron integral symmetry is turned on.
 R6Disp:  Grimme-D3(BJ) Dispersion energy=       -0.0262080646 Hartrees.
 Nuclear repulsion after empirical dispersion term =      900.6878339743 Hartrees.
 ------------------------------------------------------------------------------
 Polarizable Continuum Model (PCM)
 =================================
 Model                : PCM.
 Atomic radii         : UFF (Universal Force Field).
 Polarization charges : Total charges.
 Charge compensation  : None.
 Solution method      : On-the-fly selection.
 Cavity type          : Scaled VdW (van der Waals Surface) (Alpha=1.100).
 Cavity algorithm     : GePol (No added spheres)
                        Default sphere list used, NSphG=   29.
                        Lebedev-Laikov grids with approx.  5.0 points / Ang**2.
                        Smoothing algorithm: York/Karplus (Gamma=1.0000).
                        Polarization charges: spherical gaussians, with
                                              point-specific exponents (IZeta= 3).
                        Self-potential: point-specific (ISelfS= 7).
                        Self-field    : sphere-specific E.n sum rule (ISelfD= 2).
 Solvent              : Water, Eps=  78.355300 Eps(inf)=   1.777849
 ------------------------------------------------------------------------------
 GePol: Number of generator spheres                  =      29
 GePol: Total number of spheres                      =      29
 GePol: Number of exposed spheres                    =      29 (100.00%)
 GePol: Number of points                             =    2095
 GePol: Average weight of points                     =       0.13
 GePol: Minimum weight of points                     =   0.20D-09
 GePol: Maximum weight of points                     =    0.20577
 GePol: Number of points with low weight             =     144
 GePol: Fraction of low-weight points (<1% of avg)   =       6.87%
 GePol: Cavity surface area                          =    268.468 Ang**2
 GePol: Cavity volume                                =    286.451 Ang**3
 Leave Link  301 at Sat Jan 24 23:44:03 2026, MaxMem=  2147483648 cpu:               0.6 elap:               0.0
 (Enter /data/home/wyx/g16/l302.exe)
 NPDir=0 NMtPBC=     1 NCelOv=     1 NCel=       1 NClECP=     1 NCelD=      1
         NCelK=      1 NCelE2=     1 NClLst=     1 CellRange=     0.0.
 One-electron integrals computed using PRISM.
 One-electron integral symmetry used in STVInt
 NBasis=   356 RedAO= T EigKep=  4.65D-05  NBF=   356
 NBsUse=   356 1.00D-06 EigRej= -1.00D+00 NBFU=   356
 Precomputing XC quadrature grid using
 IXCGrd= 4 IRadAn=           5 IRanWt=          -1 IRanGd=           0 AccXCQ= 0.00D+00.
 Generated NRdTot=       0 NPtTot=           0 NUsed=           0 NTot=          32
 NSgBfM=   366   366   366   366   366 MxSgAt=    29 MxSgA2=    29.
 Leave Link  302 at Sat Jan 24 23:44:03 2026, MaxMem=  2147483648 cpu:               3.2 elap:               0.2
 (Enter /data/home/wyx/g16/l303.exe)
 DipDrv:  MaxL=1.
 Leave Link  303 at Sat Jan 24 23:44:03 2026, MaxMem=  2147483648 cpu:               0.6 elap:               0.0
 (Enter /data/home/wyx/g16/l401.exe)
 Initial guess from the checkpoint file:  "DDL-S1-cLR-gs-15.chk"
 B after Tr=     0.000000    0.000000    0.000000
         Rot=    1.000000    0.000000    0.000000    0.000000 Ang=   0.00 deg.
 Guess basis will be translated and rotated to current coordinates.
 JPrj=2 DoOrth=T DoCkMO=T.
 Leave Link  401 at Sat Jan 24 23:44:04 2026, MaxMem=  2147483648 cpu:               2.2 elap:               0.2
 (Enter /data/home/wyx/g16/l502.exe)
 Integral symmetry usage will be decided dynamically.
 Closed shell SCF:
 Using DIIS extrapolation, IDIIS=  1040.
 NGot=  2147483648 LenX=  2147200095 LenY=  2147062754
 Requested convergence on RMS density matrix=1.00D-08 within 128 cycles.
 Requested convergence on MAX density matrix=1.00D-06.
 Requested convergence on             energy=1.00D-06.
 No special actions if energy rises.
 Fock matrices will be formed incrementally for  20 cycles.

 Cycle   1  Pass 1  IDiag  1:
 FoFJK:  IHMeth= 1 ICntrl=       0 DoSepK=T KAlg= 0 I1Cent=           0 FoldK=F
 IRaf=         1 NMat=       1 IRICut=       1 DoRegI=T DoRafI=F ISym2E= 0 IDoP0=0 IntGTp=1.
 FoFCou: FMM=F IPFlag=           0 FMFlag=      100000 FMFlg1=           0
         NFxFlg=           0 DoJE=T BraDBF=F KetDBF=F FulRan=T
         wScrn=  0.000000 ICntrl=       500 IOpCl=  0 I1Cent=           0 NGrid=           0
         NMat0=    1 NMatS0=      1 NMatT0=    0 NMatD0=    1 NMtDS0=    0 NMtDT0=    0
 Symmetry not used in FoFCou.
 Inv3:  Mode=1 IEnd=    13167075.
 Iteration    1 A*A^-1 deviation from unit magnitude is 3.77D-15 for   1656.
 Iteration    1 A*A^-1 deviation from orthogonality  is 2.00D-15 for   2056   1892.
 Iteration    1 A^-1*A deviation from unit magnitude is 3.77D-15 for   1656.
 Iteration    1 A^-1*A deviation from orthogonality  is 2.78D-15 for   1806    225.
 NEqPCM:  Using non-equilibrium solvation (IEInf=1, Eps=  78.3553, EpsInf=   1.7778)
 Inv3:  Mode=1 IEnd=    13167075.
 Iteration    1 A*A^-1 deviation from unit magnitude is 3.33D-15 for   1008.
 Iteration    1 A*A^-1 deviation from orthogonality  is 2.44D-15 for   1897   1455.
 Iteration    1 A^-1*A deviation from unit magnitude is 3.55D-15 for   1008.
 Iteration    1 A^-1*A deviation from orthogonality  is 2.39D-15 for   1502   1268.
 E= -633.331630454966    
 DIIS: error= 4.09D-04 at cycle   1 NSaved=   1.
 NSaved= 1 IEnMin= 1 EnMin= -633.331630454966     IErMin= 1 ErrMin= 4.09D-04
 ErrMax= 4.09D-04  0.00D+00 EMaxC= 1.00D-01 BMatC= 3.39D-05 BMatP= 3.39D-05
 IDIUse=3 WtCom= 9.96D-01 WtEn= 4.09D-03
 Coeff-Com:  0.100D+01
 Coeff-En:   0.100D+01
 Coeff:      0.100D+01
 Gap=     0.238 Goal=   None    Shift=    0.000
 RMSDP=2.37D-04 MaxDP=1.13D-02              OVMax= 5.89D-03

 Cycle   2  Pass 1  IDiag  1:
 RMSU=  2.36D-04    CP:  9.98D-01
 E= -633.331685498910     Delta-E=       -0.000055043945 Rises=F Damp=F
 DIIS: error= 2.52D-04 at cycle   2 NSaved=   2.
 NSaved= 2 IEnMin= 2 EnMin= -633.331685498910     IErMin= 2 ErrMin= 2.52D-04
 ErrMax= 2.52D-04  0.00D+00 EMaxC= 1.00D-01 BMatC= 2.73D-05 BMatP= 3.39D-05
 IDIUse=3 WtCom= 9.97D-01 WtEn= 2.52D-03
 Coeff-Com:  0.464D+00 0.536D+00
 Coeff-En:   0.000D+00 0.100D+01
 Coeff:      0.463D+00 0.537D+00
 Gap=     0.238 Goal=   None    Shift=    0.000
 RMSDP=5.00D-05 MaxDP=2.85D-03 DE=-5.50D-05 OVMax= 1.86D-03

 Cycle   3  Pass 1  IDiag  1:
 RMSU=  4.06D-05    CP:  1.00D+00  9.03D-01
 E= -633.331709236281     Delta-E=       -0.000023737370 Rises=F Damp=F
 DIIS: error= 1.34D-04 at cycle   3 NSaved=   3.
 NSaved= 3 IEnMin= 3 EnMin= -633.331709236281     IErMin= 3 ErrMin= 1.34D-04
 ErrMax= 1.34D-04  0.00D+00 EMaxC= 1.00D-01 BMatC= 4.06D-06 BMatP= 2.73D-05
 IDIUse=3 WtCom= 9.99D-01 WtEn= 1.34D-03
 Coeff-Com:  0.879D-01 0.263D+00 0.649D+00
 Coeff-En:   0.000D+00 0.160D-01 0.984D+00
 Coeff:      0.878D-01 0.262D+00 0.650D+00
 Gap=     0.238 Goal=   None    Shift=    0.000
 RMSDP=1.57D-05 MaxDP=6.26D-04 DE=-2.37D-05 OVMax= 8.42D-04

 Cycle   4  Pass 1  IDiag  1:
 RMSU=  1.48D-05    CP:  9.99D-01  8.96D-01  9.18D-01
 E= -633.331712460597     Delta-E=       -0.000003224316 Rises=F Damp=F
 DIIS: error= 2.72D-05 at cycle   4 NSaved=   4.
 NSaved= 4 IEnMin= 4 EnMin= -633.331712460597     IErMin= 4 ErrMin= 2.72D-05
 ErrMax= 2.72D-05  0.00D+00 EMaxC= 1.00D-01 BMatC= 3.69D-07 BMatP= 4.06D-06
 IDIUse=1 WtCom= 1.00D+00 WtEn= 0.00D+00
 Coeff-Com: -0.501D-02 0.419D-01 0.249D+00 0.715D+00
 Coeff:     -0.501D-02 0.419D-01 0.249D+00 0.715D+00
 Gap=     0.238 Goal=   None    Shift=    0.000
 RMSDP=8.59D-06 MaxDP=5.35D-04 DE=-3.22D-06 OVMax= 2.32D-04

 Cycle   5  Pass 1  IDiag  1:
 RMSU=  4.94D-06    CP:  1.00D+00  9.02D-01  1.06D+00  1.17D+00
 E= -633.331712764919     Delta-E=       -0.000000304322 Rises=F Damp=F
 DIIS: error= 1.09D-05 at cycle   5 NSaved=   5.
 NSaved= 5 IEnMin= 5 EnMin= -633.331712764919     IErMin= 5 ErrMin= 1.09D-05
 ErrMax= 1.09D-05  0.00D+00 EMaxC= 1.00D-01 BMatC= 6.95D-08 BMatP= 3.69D-07
 IDIUse=1 WtCom= 1.00D+00 WtEn= 0.00D+00
 Coeff-Com: -0.117D-01-0.186D-01 0.269D-01 0.330D+00 0.673D+00
 Coeff:     -0.117D-01-0.186D-01 0.269D-01 0.330D+00 0.673D+00
 Gap=     0.238 Goal=   None    Shift=    0.000
 RMSDP=2.25D-06 MaxDP=1.05D-04 DE=-3.04D-07 OVMax= 1.01D-04

 Cycle   6  Pass 1  IDiag  1:
 RMSU=  1.40D-06    CP:  1.00D+00  9.01D-01  1.08D+00  1.27D+00  1.06D+00
 E= -633.331712835766     Delta-E=       -0.000000070847 Rises=F Damp=F
 DIIS: error= 5.08D-06 at cycle   6 NSaved=   6.
 NSaved= 6 IEnMin= 6 EnMin= -633.331712835766     IErMin= 6 ErrMin= 5.08D-06
 ErrMax= 5.08D-06  0.00D+00 EMaxC= 1.00D-01 BMatC= 7.07D-09 BMatP= 6.95D-08
 IDIUse=1 WtCom= 1.00D+00 WtEn= 0.00D+00
 Coeff-Com: -0.298D-02-0.121D-01-0.105D-01 0.346D-01 0.246D+00 0.745D+00
 Coeff:     -0.298D-02-0.121D-01-0.105D-01 0.346D-01 0.246D+00 0.745D+00
 Gap=     0.238 Goal=   None    Shift=    0.000
 RMSDP=1.39D-06 MaxDP=8.73D-05 DE=-7.08D-08 OVMax= 6.65D-05

 Cycle   7  Pass 1  IDiag  1:
 RMSU=  5.35D-07    CP:  1.00D+00  8.99D-01  1.10D+00  1.32D+00  1.20D+00
                    CP:  1.10D+00
 E= -633.331712843826     Delta-E=       -0.000000008060 Rises=F Damp=F
 DIIS: error= 2.01D-06 at cycle   7 NSaved=   7.
 NSaved= 7 IEnMin= 7 EnMin= -633.331712843826     IErMin= 7 ErrMin= 2.01D-06
 ErrMax= 2.01D-06  0.00D+00 EMaxC= 1.00D-01 BMatC= 2.20D-09 BMatP= 7.07D-09
 IDIUse=1 WtCom= 1.00D+00 WtEn= 0.00D+00
 Coeff-Com:  0.496D-03-0.409D-02-0.686D-02-0.404D-01 0.474D-02 0.391D+00
 Coeff-Com:  0.655D+00
 Coeff:      0.496D-03-0.409D-02-0.686D-02-0.404D-01 0.474D-02 0.391D+00
 Coeff:      0.655D+00
 Gap=     0.238 Goal=   None    Shift=    0.000
 RMSDP=4.91D-07 MaxDP=2.94D-05 DE=-8.06D-09 OVMax= 2.53D-05

 Cycle   8  Pass 1  IDiag  1:
 RMSU=  2.12D-07    CP:  1.00D+00  8.99D-01  1.10D+00  1.33D+00  1.25D+00
                    CP:  1.23D+00  9.86D-01
 E= -633.331712846362     Delta-E=       -0.000000002536 Rises=F Damp=F
 DIIS: error= 6.43D-07 at cycle   8 NSaved=   8.
 NSaved= 8 IEnMin= 8 EnMin= -633.331712846362     IErMin= 8 ErrMin= 6.43D-07
 ErrMax= 6.43D-07  0.00D+00 EMaxC= 1.00D-01 BMatC= 1.55D-10 BMatP= 2.20D-09
 IDIUse=1 WtCom= 1.00D+00 WtEn= 0.00D+00
 Coeff-Com:  0.565D-03-0.479D-03 0.619D-03-0.172D-01-0.332D-01 0.214D-01
 Coeff-Com:  0.172D+00 0.856D+00
 Coeff:      0.565D-03-0.479D-03 0.619D-03-0.172D-01-0.332D-01 0.214D-01
 Coeff:      0.172D+00 0.856D+00
 Gap=     0.238 Goal=   None    Shift=    0.000
 RMSDP=2.08D-07 MaxDP=1.25D-05 DE=-2.54D-09 OVMax= 1.04D-05

 Cycle   9  Pass 1  IDiag  1:
 RMSU=  7.27D-08    CP:  1.00D+00  8.99D-01  1.11D+00  1.33D+00  1.27D+00
                    CP:  1.28D+00  1.09D+00  1.03D+00
 E= -633.331712846605     Delta-E=       -0.000000000243 Rises=F Damp=F
 DIIS: error= 1.36D-07 at cycle   9 NSaved=   9.
 NSaved= 9 IEnMin= 9 EnMin= -633.331712846605     IErMin= 9 ErrMin= 1.36D-07
 ErrMax= 1.36D-07  0.00D+00 EMaxC= 1.00D-01 BMatC= 1.49D-11 BMatP= 1.55D-10
 IDIUse=1 WtCom= 1.00D+00 WtEn= 0.00D+00
 Coeff-Com:  0.127D-03 0.626D-04 0.117D-02-0.637D-03-0.108D-01-0.375D-01
 Coeff-Com: -0.252D-01 0.256D+00 0.816D+00
 Coeff:      0.127D-03 0.626D-04 0.117D-02-0.637D-03-0.108D-01-0.375D-01
 Coeff:     -0.252D-01 0.256D+00 0.816D+00
 Gap=     0.238 Goal=   None    Shift=    0.000
 RMSDP=4.73D-08 MaxDP=2.11D-06 DE=-2.43D-10 OVMax= 3.21D-06

 Cycle  10  Pass 1  IDiag  1:
 RMSU=  1.93D-08    CP:  1.00D+00  8.98D-01  1.11D+00  1.33D+00  1.27D+00
                    CP:  1.29D+00  1.12D+00  1.11D+00  1.08D+00
 E= -633.331712846616     Delta-E=       -0.000000000012 Rises=F Damp=F
 DIIS: error= 4.79D-08 at cycle  10 NSaved=  10.
 NSaved=10 IEnMin=10 EnMin= -633.331712846616     IErMin=10 ErrMin= 4.79D-08
 ErrMax= 4.79D-08  0.00D+00 EMaxC= 1.00D-01 BMatC= 1.22D-12 BMatP= 1.49D-11
 IDIUse=1 WtCom= 1.00D+00 WtEn= 0.00D+00
 Coeff-Com:  0.665D-05 0.382D-04 0.360D-03 0.116D-02-0.118D-02-0.144D-01
 Coeff-Com: -0.224D-01 0.241D-01 0.278D+00 0.734D+00
 Coeff:      0.665D-05 0.382D-04 0.360D-03 0.116D-02-0.118D-02-0.144D-01
 Coeff:     -0.224D-01 0.241D-01 0.278D+00 0.734D+00
 Gap=     0.238 Goal=   None    Shift=    0.000
 RMSDP=1.45D-08 MaxDP=8.71D-07 DE=-1.17D-11 OVMax= 9.72D-07

 Cycle  11  Pass 1  IDiag  1:
 RMSU=  8.95D-09    CP:  1.00D+00  8.99D-01  1.11D+00  1.33D+00  1.27D+00
                    CP:  1.29D+00  1.13D+00  1.13D+00  1.14D+00  1.18D+00
 E= -633.331712846624     Delta-E=       -0.000000000008 Rises=F Damp=F
 DIIS: error= 2.86D-08 at cycle  11 NSaved=  11.
 NSaved=11 IEnMin=11 EnMin= -633.331712846624     IErMin=11 ErrMin= 2.86D-08
 ErrMax= 2.86D-08  0.00D+00 EMaxC= 1.00D-01 BMatC= 3.81D-13 BMatP= 1.22D-12
 IDIUse=1 WtCom= 1.00D+00 WtEn= 0.00D+00
 Coeff-Com: -0.141D-04 0.938D-05-0.387D-05 0.665D-03 0.105D-02-0.106D-02
 Coeff-Com: -0.706D-02-0.263D-01 0.638D-02 0.376D+00 0.651D+00
 Coeff:     -0.141D-04 0.938D-05-0.387D-05 0.665D-03 0.105D-02-0.106D-02
 Coeff:     -0.706D-02-0.263D-01 0.638D-02 0.376D+00 0.651D+00
 Gap=     0.238 Goal=   None    Shift=    0.000
 RMSDP=6.60D-09 MaxDP=3.17D-07 DE=-7.50D-12 OVMax= 4.33D-07

 Error on total polarization charges =  0.00839
 SCF Done:  E(RCAM-B3LYP) =  -633.331712847     A.U. after   11 cycles
            NFock= 11  Conv=0.66D-08     -V/T= 2.0042
 KE= 6.306969885141D+02 PE=-3.277371127346D+03 EE= 1.112654592011D+03
 Leave Link  502 at Sat Jan 24 23:44:48 2026, MaxMem=  2147483648 cpu:             701.5 elap:              44.5
 (Enter /data/home/wyx/g16/l601.exe)
 Copying SCF densities to generalized density rwf, IOpCl= 0 IROHF=0.

 **********************************************************************

            Population analysis using the SCF density.

 **********************************************************************

 Orbital symmetries:
       Occupied  (A) (A) (A) (A) (A) (A) (A) (A) (A) (A) (A) (A)
                 (A) (A) (A) (A) (A) (A) (A) (A) (A) (A) (A) (A)
                 (A) (A) (A) (A) (A) (A) (A) (A) (A) (A) (A) (A)
                 (A) (A) (A) (A) (A) (A) (A) (A) (A) (A) (A) (A)
                 (A) (A) (A) (A)
       Virtual   (A) (A) (A) (A) (A) (A) (A) (A) (A) (A) (A) (A)
                 (A) (A) (A) (A) (A) (A) (A) (A) (A) (A) (A) (A)
                 (A) (A) (A) (A) (A) (A) (A) (A) (A) (A) (A) (A)
                 (A) (A) (A) (A) (A) (A) (A) (A) (A) (A) (A) (A)
                 (A) (A) (A) (A) (A) (A) (A) (A) (A) (A) (A) (A)
                 (A) (A) (A) (A) (A) (A) (A) (A) (A) (A) (A) (A)
                 (A) (A) (A) (A) (A) (A) (A) (A) (A) (A) (A) (A)
                 (A) (A) (A) (A) (A) (A) (A) (A) (A) (A) (A) (A)
                 (A) (A) (A) (A) (A) (A) (A) (A) (A) (A) (A) (A)
                 (A) (A) (A) (A) (A) (A) (A) (A) (A) (A) (A) (A)
                 (A) (A) (A) (A) (A) (A) (A) (A) (A) (A) (A) (A)
                 (A) (A) (A) (A) (A) (A) (A) (A) (A) (A) (A) (A)
                 (A) (A) (A) (A) (A) (A) (A) (A) (A) (A) (A) (A)
                 (A) (A) (A) (A) (A) (A) (A) (A) (A) (A) (A) (A)
                 (A) (A) (A) (A) (A) (A) (A) (A) (A) (A) (A) (A)
                 (A) (A) (A) (A) (A) (A) (A) (A) (A) (A) (A) (A)
                 (A) (A) (A) (A) (A) (A) (A) (A) (A) (A) (A) (A)
                 (A) (A) (A) (A) (A) (A) (A) (A) (A) (A) (A) (A)
                 (A) (A) (A) (A) (A) (A) (A) (A) (A) (A) (A) (A)
                 (A) (A) (A) (A) (A) (A) (A) (A) (A) (A) (A) (A)
                 (A) (A) (A) (A) (A) (A) (A) (A) (A) (A) (A) (A)
                 (A) (A) (A) (A) (A) (A) (A) (A) (A) (A) (A) (A)
                 (A) (A) (A) (A) (A) (A) (A) (A) (A) (A) (A) (A)
                 (A) (A) (A) (A) (A) (A) (A) (A) (A) (A) (A) (A)
                 (A) (A) (A) (A) (A) (A) (A) (A) (A) (A) (A) (A)
                 (A) (A) (A) (A)
 The electronic state is 1-A.
 Alpha  occ. eigenvalues --  -19.17948 -19.17474 -14.43751 -10.33486 -10.33187
 Alpha  occ. eigenvalues --  -10.31794 -10.31342 -10.25496 -10.24825 -10.24625
 Alpha  occ. eigenvalues --  -10.24582 -10.24405 -10.24279 -10.23832  -1.12089
 Alpha  occ. eigenvalues --   -1.11466  -1.07142  -0.91016  -0.90057  -0.83778
 Alpha  occ. eigenvalues --   -0.82403  -0.81422  -0.78394  -0.73763  -0.70910
 Alpha  occ. eigenvalues --   -0.68525  -0.61510  -0.58076  -0.56712  -0.54978
 Alpha  occ. eigenvalues --   -0.54263  -0.53939  -0.52490  -0.51869  -0.50577
 Alpha  occ. eigenvalues --   -0.50071  -0.49447  -0.48976  -0.48375  -0.47996
 Alpha  occ. eigenvalues --   -0.46706  -0.45378  -0.44859  -0.43101  -0.42864
 Alpha  occ. eigenvalues --   -0.42416  -0.42034  -0.41868  -0.32730  -0.32300
 Alpha  occ. eigenvalues --   -0.31390  -0.26030
 Alpha virt. eigenvalues --   -0.02227   0.02455   0.06706   0.08415   0.08977
 Alpha virt. eigenvalues --    0.10197   0.10843   0.12168   0.12834   0.13686
 Alpha virt. eigenvalues --    0.14398   0.15161   0.15811   0.16315   0.17079
 Alpha virt. eigenvalues --    0.17524   0.17784   0.18045   0.18198   0.19281
 Alpha virt. eigenvalues --    0.20050   0.22154   0.22963   0.23560   0.23615
 Alpha virt. eigenvalues --    0.24225   0.24855   0.25673   0.25807   0.26737
 Alpha virt. eigenvalues --    0.26944   0.27420   0.28877   0.29244   0.30345
 Alpha virt. eigenvalues --    0.31661   0.32209   0.32771   0.33809   0.34523
 Alpha virt. eigenvalues --    0.35526   0.36026   0.37001   0.38303   0.38984
 Alpha virt. eigenvalues --    0.40061   0.41117   0.42042   0.42512   0.42865
 Alpha virt. eigenvalues --    0.44150   0.44294   0.45413   0.45989   0.46229
 Alpha virt. eigenvalues --    0.47351   0.48035   0.48176   0.48527   0.48877
 Alpha virt. eigenvalues --    0.49660   0.49901   0.50977   0.51371   0.51515
 Alpha virt. eigenvalues --    0.52880   0.53247   0.53583   0.54309   0.54478
 Alpha virt. eigenvalues --    0.54751   0.55940   0.56223   0.56726   0.58265
 Alpha virt. eigenvalues --    0.58620   0.59256   0.60759   0.60998   0.62508
 Alpha virt. eigenvalues --    0.63216   0.65475   0.66119   0.66513   0.67958
 Alpha virt. eigenvalues --    0.69088   0.70489   0.71759   0.72755   0.73322
 Alpha virt. eigenvalues --    0.73950   0.73960   0.74921   0.76449   0.77493
 Alpha virt. eigenvalues --    0.78390   0.79686   0.82131   0.83855   0.84765
 Alpha virt. eigenvalues --    0.88805   0.92687   0.96298   0.99299   1.25421
 Alpha virt. eigenvalues --    1.25825   1.27360   1.28004   1.29464   1.31656
 Alpha virt. eigenvalues --    1.32548   1.32970   1.34197   1.35516   1.35957
 Alpha virt. eigenvalues --    1.36719   1.37207   1.38167   1.39382   1.39914
 Alpha virt. eigenvalues --    1.40154   1.40544   1.41335   1.41747   1.41906
 Alpha virt. eigenvalues --    1.43391   1.44217   1.44630   1.45495   1.47092
 Alpha virt. eigenvalues --    1.48193   1.49115   1.49789   1.50809   1.51193
 Alpha virt. eigenvalues --    1.52449   1.52637   1.54086   1.54502   1.57636
 Alpha virt. eigenvalues --    1.58315   1.60413   1.60859   1.61255   1.62333
 Alpha virt. eigenvalues --    1.62749   1.63469   1.64335   1.65418   1.66341
 Alpha virt. eigenvalues --    1.67246   1.67662   1.68068   1.68310   1.69119
 Alpha virt. eigenvalues --    1.69325   1.70267   1.70960   1.72379   1.72645
 Alpha virt. eigenvalues --    1.73307   1.75258   1.76216   1.76986   1.78787
 Alpha virt. eigenvalues --    1.80093   1.83598   1.84722   1.86133   1.86640
 Alpha virt. eigenvalues --    1.87137   1.87332   1.88426   1.89449   1.90940
 Alpha virt. eigenvalues --    1.91562   1.94518   1.95691   1.98113   1.99664
 Alpha virt. eigenvalues --    2.00956   2.03852   2.04529   2.06589   2.09635
 Alpha virt. eigenvalues --    2.11473   2.13147   2.14676   2.16880   2.19637
 Alpha virt. eigenvalues --    2.21167   2.21328   2.21849   2.22904   2.25930
 Alpha virt. eigenvalues --    2.26902   2.27763   2.29044   2.30689   2.31514
 Alpha virt. eigenvalues --    2.33339   2.34801   2.35802   2.36644   2.37753
 Alpha virt. eigenvalues --    2.39555   2.40454   2.41751   2.44477   2.44959
 Alpha virt. eigenvalues --    2.45730   2.47686   2.49759   2.50790   2.52082
 Alpha virt. eigenvalues --    2.52892   2.53335   2.54760   2.56863   2.58644
 Alpha virt. eigenvalues --    2.59336   2.60194   2.61013   2.61285   2.62654
 Alpha virt. eigenvalues --    2.64387   2.65458   2.67097   2.67695   2.69433
 Alpha virt. eigenvalues --    2.70644   2.71827   2.73227   2.73708   2.74423
 Alpha virt. eigenvalues --    2.76499   2.76828   2.77317   2.78139   2.79286
 Alpha virt. eigenvalues --    2.80746   2.81339   2.82485   2.83705   2.84500
 Alpha virt. eigenvalues --    2.85736   2.85973   2.87850   2.90554   2.92002
 Alpha virt. eigenvalues --    2.97572   2.99598   3.01150   3.04261   3.10282
 Alpha virt. eigenvalues --    3.12065   3.14447   3.16659   3.17236   3.18371
 Alpha virt. eigenvalues --    3.20781   3.22112   3.25053   3.26135   3.26885
 Alpha virt. eigenvalues --    3.27025   3.29335   3.33639   3.34516   3.36429
 Alpha virt. eigenvalues --    3.37130   3.38894   3.39859   3.40466   3.41781
 Alpha virt. eigenvalues --    3.42961   3.45138   3.45266   3.46149   3.47810
 Alpha virt. eigenvalues --    3.48799   3.49850   3.55104   3.58117   3.59492
 Alpha virt. eigenvalues --    3.59852   3.89964   3.99634   4.34225   4.35156
 Alpha virt. eigenvalues --   21.63115  21.78651  22.08038  22.10930  22.11462
 Alpha virt. eigenvalues --   22.13980  22.15468  22.17758  22.21351  22.25364
 Alpha virt. eigenvalues --   22.30894  31.93685  43.62597  43.64803
          Condensed to atoms (all electrons):
               1          2          3          4          5          6
     1  O    7.959773   0.000000  -0.000250   0.000017   0.015401   0.016751
     2  O    0.000000   7.996332   0.000339   0.000028  -0.203881   0.000952
     3  N   -0.000250   0.000339   6.378977   0.374149  -0.106730   0.336243
     4  H    0.000017   0.000028   0.374149   0.400232   0.016524  -0.044832
     5  C    0.015401  -0.203881  -0.106730   0.016524   6.936488  -0.061241
     6  C    0.016751   0.000952   0.336243  -0.044832  -0.061241   5.593703
     7  C   -0.000388  -0.026811   0.374007  -0.040188   0.365134  -0.080969
     8  C   -0.000164   0.712083   0.004613  -0.000652  -0.264322   0.027834
     9  C   -0.033421   0.017125   0.015576  -0.000165  -0.421440  -0.136448
    10  H    0.003394   0.000065   0.003717   0.000011  -0.026768  -0.013907
    11  H    0.018119  -0.000024  -0.001459   0.000015  -0.107259   0.024837
    12  C   -0.221545  -0.002133  -0.089801   0.015204   0.140540  -0.150990
    13  C    0.716169  -0.000031  -0.000013   0.000335   0.071552   0.177548
    14  C   -0.000005  -0.020571  -0.036578  -0.007558  -0.061984   0.006298
    15  H   -0.000000   0.004287   0.003852   0.000727   0.014103   0.006166
    16  H   -0.000000   0.001332  -0.003582   0.000871  -0.003995  -0.001818
    17  H    0.000000   0.003582   0.002313   0.000762  -0.007186  -0.000701
    18  C   -0.000155  -0.107477  -0.000593   0.000016  -0.268161   0.000478
    19  H   -0.000004   0.009186   0.000003  -0.000001   0.025679   0.000025
    20  H    0.000020   0.001038   0.000015  -0.000000   0.000828   0.000244
    21  H    0.000083   0.003745   0.000122   0.000001   0.044945  -0.001101
    22  C   -0.109253   0.000000   0.000045   0.000106   0.003570  -0.007029
    23  H    0.004639  -0.000000  -0.000096  -0.000050  -0.000513  -0.033090
    24  H    0.001320  -0.000000  -0.000033  -0.000017  -0.000101   0.010947
    25  H    0.008325   0.000000   0.000033  -0.000002  -0.000132  -0.001544
    26  C    0.000857   0.000002  -0.030467  -0.006428  -0.000647   0.178265
    27  H   -0.000206  -0.000000   0.002996   0.000906   0.000063  -0.046071
    28  H   -0.000043  -0.000000  -0.002364   0.000436   0.000417  -0.036171
    29  H    0.000025  -0.000000   0.000490   0.000812  -0.000510  -0.047249
               7          8          9         10         11         12
     1  O   -0.000388  -0.000164  -0.033421   0.003394   0.018119  -0.221545
     2  O   -0.026811   0.712083   0.017125   0.000065  -0.000024  -0.002133
     3  N    0.374007   0.004613   0.015576   0.003717  -0.001459  -0.089801
     4  H   -0.040188  -0.000652  -0.000165   0.000011   0.000015   0.015204
     5  C    0.365134  -0.264322  -0.421440  -0.026768  -0.107259   0.140540
     6  C   -0.080969   0.027834  -0.136448  -0.013907   0.024837  -0.150990
     7  C    5.412471  -0.180261  -0.158164  -0.004907   0.018875  -0.015115
     8  C   -0.180261   5.384681   0.073763  -0.004729  -0.008096  -0.030023
     9  C   -0.158164   0.073763   6.187994   0.396413   0.519996   0.058065
    10  H   -0.004907  -0.004729   0.396413   0.535372  -0.033285  -0.021202
    11  H    0.018875  -0.008096   0.519996  -0.033285   0.506296  -0.105381
    12  C   -0.015115  -0.030023   0.058065  -0.021202  -0.105381   7.217788
    13  C    0.012423  -0.006072  -0.267292   0.002155  -0.000807  -0.393064
    14  C    0.243820  -0.048490   0.010970  -0.001330   0.000484  -0.003679
    15  H   -0.067139   0.005633  -0.000313   0.000085  -0.000002  -0.000977
    16  H   -0.024786   0.000070   0.000308  -0.000065   0.000054   0.000796
    17  H   -0.034546  -0.009719  -0.000220   0.000182  -0.000060  -0.000131
    18  C    0.002646   0.321952   0.002541  -0.008797   0.008443  -0.002681
    19  H    0.000433  -0.054099   0.000025  -0.000028   0.000479  -0.000218
    20  H    0.001220  -0.021190  -0.007814   0.000933  -0.002594  -0.003475
    21  H    0.000273  -0.067776  -0.010317   0.002083  -0.005053   0.006036
    22  C   -0.000008  -0.000049   0.002513   0.001404   0.001337  -0.259545
    23  H    0.000007  -0.000010   0.003321  -0.000112  -0.000093   0.063117
    24  H    0.000030   0.000003  -0.001843   0.000130  -0.000119  -0.010645
    25  H    0.000007   0.000004   0.000293  -0.000035  -0.000154   0.025731
    26  C    0.002848   0.000404   0.019020  -0.000710   0.000008  -0.073943
    27  H   -0.000768   0.000003  -0.000978  -0.000064  -0.000000  -0.006062
    28  H   -0.000856  -0.000009  -0.000176  -0.000025   0.000047  -0.019251
    29  H    0.003691  -0.000006  -0.000480   0.000087  -0.000007   0.022436
              13         14         15         16         17         18
     1  O    0.716169  -0.000005  -0.000000  -0.000000   0.000000  -0.000155
     2  O   -0.000031  -0.020571   0.004287   0.001332   0.003582  -0.107477
     3  N   -0.000013  -0.036578   0.003852  -0.003582   0.002313  -0.000593
     4  H    0.000335  -0.007558   0.000727   0.000871   0.000762   0.000016
     5  C    0.071552  -0.061984   0.014103  -0.003995  -0.007186  -0.268161
     6  C    0.177548   0.006298   0.006166  -0.001818  -0.000701   0.000478
     7  C    0.012423   0.243820  -0.067139  -0.024786  -0.034546   0.002646
     8  C   -0.006072  -0.048490   0.005633   0.000070  -0.009719   0.321952
     9  C   -0.267292   0.010970  -0.000313   0.000308  -0.000220   0.002541
    10  H    0.002155  -0.001330   0.000085  -0.000065   0.000182  -0.008797
    11  H   -0.000807   0.000484  -0.000002   0.000054  -0.000060   0.008443
    12  C   -0.393064  -0.003679  -0.000977   0.000796  -0.000131  -0.002681
    13  C    5.451739  -0.000072  -0.000011  -0.000026   0.000001   0.000298
    14  C   -0.000072   5.111745   0.384995   0.406067   0.426377   0.001305
    15  H   -0.000011   0.384995   0.566885  -0.025045  -0.027890   0.000276
    16  H   -0.000026   0.406067  -0.025045   0.513813  -0.027743  -0.000047
    17  H    0.000001   0.426377  -0.027890  -0.027743   0.512629  -0.000164
    18  C    0.000298   0.001305   0.000276  -0.000047  -0.000164   5.346584
    19  H   -0.000011   0.000080  -0.000006  -0.000018   0.000041   0.390397
    20  H   -0.000050  -0.000304  -0.000006  -0.000002   0.000032   0.393062
    21  H    0.000507   0.000128  -0.000018   0.000003  -0.000054   0.385379
    22  C    0.289198  -0.000024   0.000002  -0.000000  -0.000000   0.000018
    23  H   -0.087313  -0.000001   0.000000   0.000000   0.000000   0.000003
    24  H   -0.023570  -0.000001   0.000000   0.000000  -0.000000  -0.000002
    25  H   -0.044108   0.000001  -0.000000  -0.000000  -0.000000  -0.000001
    26  C   -0.056723   0.001485  -0.000081  -0.000177   0.000056   0.000021
    27  H   -0.006231   0.000102  -0.000014   0.000002  -0.000001   0.000000
    28  H    0.006234  -0.000091   0.000004  -0.000016   0.000003  -0.000001
    29  H   -0.000194  -0.000273   0.000142   0.000002  -0.000003   0.000000
              19         20         21         22         23         24
     1  O   -0.000004   0.000020   0.000083  -0.109253   0.004639   0.001320
     2  O    0.009186   0.001038   0.003745   0.000000  -0.000000  -0.000000
     3  N    0.000003   0.000015   0.000122   0.000045  -0.000096  -0.000033
     4  H   -0.000001  -0.000000   0.000001   0.000106  -0.000050  -0.000017
     5  C    0.025679   0.000828   0.044945   0.003570  -0.000513  -0.000101
     6  C    0.000025   0.000244  -0.001101  -0.007029  -0.033090   0.010947
     7  C    0.000433   0.001220   0.000273  -0.000008   0.000007   0.000030
     8  C   -0.054099  -0.021190  -0.067776  -0.000049  -0.000010   0.000003
     9  C    0.000025  -0.007814  -0.010317   0.002513   0.003321  -0.001843
    10  H   -0.000028   0.000933   0.002083   0.001404  -0.000112   0.000130
    11  H    0.000479  -0.002594  -0.005053   0.001337  -0.000093  -0.000119
    12  C   -0.000218  -0.003475   0.006036  -0.259545   0.063117  -0.010645
    13  C   -0.000011  -0.000050   0.000507   0.289198  -0.087313  -0.023570
    14  C    0.000080  -0.000304   0.000128  -0.000024  -0.000001  -0.000001
    15  H   -0.000006  -0.000006  -0.000018   0.000002   0.000000   0.000000
    16  H   -0.000018  -0.000002   0.000003  -0.000000   0.000000   0.000000
    17  H    0.000041   0.000032  -0.000054  -0.000000   0.000000  -0.000000
    18  C    0.390397   0.393062   0.385379   0.000018   0.000003  -0.000002
    19  H    0.510403  -0.010552  -0.021880  -0.000000   0.000000   0.000000
    20  H   -0.010552   0.501295  -0.024761  -0.000010  -0.000000   0.000000
    21  H   -0.021880  -0.024761   0.529706   0.000014  -0.000000  -0.000000
    22  C   -0.000000  -0.000010   0.000014   5.421837   0.398125   0.401671
    23  H    0.000000  -0.000000  -0.000000   0.398125   0.534285  -0.026161
    24  H    0.000000   0.000000  -0.000000   0.401671  -0.026161   0.492258
    25  H   -0.000000  -0.000000  -0.000000   0.383050  -0.021659  -0.008504
    26  C    0.000000   0.000005  -0.000013  -0.029422   0.015345  -0.015501
    27  H   -0.000000   0.000000  -0.000000   0.010052  -0.010439  -0.001211
    28  H    0.000000   0.000000  -0.000000  -0.011398  -0.001266   0.001206
    29  H    0.000000  -0.000000   0.000000   0.001838   0.000724   0.000211
              25         26         27         28         29
     1  O    0.008325   0.000857  -0.000206  -0.000043   0.000025
     2  O    0.000000   0.000002  -0.000000  -0.000000  -0.000000
     3  N    0.000033  -0.030467   0.002996  -0.002364   0.000490
     4  H   -0.000002  -0.006428   0.000906   0.000436   0.000812
     5  C   -0.000132  -0.000647   0.000063   0.000417  -0.000510
     6  C   -0.001544   0.178265  -0.046071  -0.036171  -0.047249
     7  C    0.000007   0.002848  -0.000768  -0.000856   0.003691
     8  C    0.000004   0.000404   0.000003  -0.000009  -0.000006
     9  C    0.000293   0.019020  -0.000978  -0.000176  -0.000480
    10  H   -0.000035  -0.000710  -0.000064  -0.000025   0.000087
    11  H   -0.000154   0.000008  -0.000000   0.000047  -0.000007
    12  C    0.025731  -0.073943  -0.006062  -0.019251   0.022436
    13  C   -0.044108  -0.056723  -0.006231   0.006234  -0.000194
    14  C    0.000001   0.001485   0.000102  -0.000091  -0.000273
    15  H   -0.000000  -0.000081  -0.000014   0.000004   0.000142
    16  H   -0.000000  -0.000177   0.000002  -0.000016   0.000002
    17  H   -0.000000   0.000056  -0.000001   0.000003  -0.000003
    18  C   -0.000001   0.000021   0.000000  -0.000001   0.000000
    19  H   -0.000000   0.000000  -0.000000   0.000000   0.000000
    20  H   -0.000000   0.000005   0.000000   0.000000  -0.000000
    21  H   -0.000000  -0.000013  -0.000000  -0.000000   0.000000
    22  C    0.383050  -0.029422   0.010052  -0.011398   0.001838
    23  H   -0.021659   0.015345  -0.010439  -0.001266   0.000724
    24  H   -0.008504  -0.015501  -0.001211   0.001206   0.000211
    25  H    0.499964   0.002037   0.000899   0.000104  -0.000046
    26  C    0.002037   5.257948   0.425355   0.430286   0.389922
    27  H    0.000899   0.425355   0.514490  -0.026100  -0.026361
    28  H    0.000104   0.430286  -0.026100   0.480005  -0.017608
    29  H   -0.000046   0.389922  -0.026361  -0.017608   0.513158
 Mulliken charges:
               1
     1  O   -0.379462
     2  O   -0.389167
     3  N   -0.225524
     4  H    0.288741
     5  C   -0.100375
     6  C    0.282871
     7  C    0.197021
     8  C    0.164622
     9  C   -0.268855
    10  H    0.169931
    11  H    0.165404
    12  C   -0.139852
    13  C    0.157431
    14  C   -0.412897
    15  H    0.134343
    16  H    0.164003
    17  H    0.162443
    18  C   -0.465343
    19  H    0.150066
    20  H    0.172069
    21  H    0.157950
    22  C   -0.498042
    23  H    0.161236
    24  H    0.179931
    25  H    0.155738
    26  C   -0.509751
    27  H    0.169637
    28  H    0.196631
    29  H    0.159199
 Sum of Mulliken charges =  -0.00000
 Mulliken charges with hydrogens summed into heavy atoms:
               1
     1  O   -0.379462
     2  O   -0.389167
     3  N    0.063217
     5  C   -0.100375
     6  C    0.282871
     7  C    0.197021
     8  C    0.164622
     9  C    0.066480
    12  C   -0.139852
    13  C    0.157431
    14  C    0.047892
    18  C    0.014743
    22  C   -0.001137
    26  C    0.015716
 Electronic spatial extent (au):  <R**2>=           3186.2850
 Charge=              0.0000 electrons
 Dipole moment (field-independent basis, Debye):
    X=             -4.0657    Y=              7.5984    Z=             -0.5592  Tot=              8.6359
 Quadrupole moment (field-independent basis, Debye-Ang):
   XX=            -99.2008   YY=            -78.5475   ZZ=            -84.9106
   XY=            -12.9699   XZ=             -5.8283   YZ=             -1.3584
 Traceless Quadrupole moment (field-independent basis, Debye-Ang):
   XX=            -11.6478   YY=              9.0055   ZZ=              2.6423
   XY=            -12.9699   XZ=             -5.8283   YZ=             -1.3584
 Octapole moment (field-independent basis, Debye-Ang**2):
  XXX=           -109.8361  YYY=             66.0128  ZZZ=              1.7953  XYY=             34.9772
  XXY=             31.4753  XXZ=            -12.1932  XZZ=             -3.0485  YZZ=             -1.0287
  YYZ=              2.2479  XYZ=              4.8890
 Hexadecapole moment (field-independent basis, Debye-Ang**3):
 XXXX=          -3050.8221 YYYY=          -1269.5261 ZZZZ=           -157.8893 XXXY=            -40.9950
 XXXZ=            -69.1284 YYYX=            -89.6550 YYYZ=            -22.2814 ZZZX=              2.1764
 ZZZY=              6.1851 XXYY=           -694.9762 XXZZ=           -489.6259 YYZZ=           -241.3291
 XXYZ=             -4.7352 YYXZ=             -6.0420 ZZXY=              0.9795
 N-N= 9.006878339743D+02 E-N=-3.277371124599D+03  KE= 6.306969885141D+02
 No NMR shielding tensors so no spin-rotation constants.
 Leave Link  601 at Sat Jan 24 23:44:49 2026, MaxMem=  2147483648 cpu:               1.8 elap:               0.1
 (Enter /data/home/wyx/g16/l9999.exe)
 1\1\GINC-CN015\SP\RCAM-B3LYP\TZVP\C11H15N1O2\WYX\24-Jan-2026\0\\#p CAM
 -B3LYP TZVP em=gd3bj scrf=(Solvent=Water,NonEquilibrium=Read) Geom=Che
 ck Guess=Read\\Title Card Required\\0,1\O,0,2.748457,-1.558493,0.72863
 1\O,0,-3.229811,-1.640047,-1.109803\N,0,-0.708239,1.514503,0.12575\H,0
 ,-1.015135,2.471748,0.065893\C,0,-1.246662,-0.758185,-0.152331\C,0,0.6
 42999,1.298798,0.2814\C,0,-1.617029,0.541347,-0.226974\C,0,-2.150747,-
 1.830756,-0.548098\C,0,0.099297,-1.110256,0.437972\H,0,-0.011436,-1.43
 0557,1.482325\H,0,0.527635,-1.967623,-0.076512\C,0,1.09445,0.025882,0.
 359932\C,0,2.493394,-0.388562,0.456048\C,0,-2.93851,1.079914,-0.665233
 \H,0,-3.066702,2.107657,-0.324655\H,0,-3.017391,1.069499,-1.752774\H,0
 ,-3.762425,0.48073,-0.289131\C,0,-1.736888,-3.247363,-0.248883\H,0,-2.
 579158,-3.920175,-0.391694\H,0,-0.933239,-3.558549,-0.920409\H,0,-1.35
 8799,-3.35994,0.767697\C,0,3.649444,0.544916,0.194007\H,0,3.462531,1.2
 37932,-0.621924\H,0,3.877655,1.126336,1.088789\H,0,4.519314,-0.064837,
 -0.038473\C,0,1.422179,2.577496,0.336861\H,0,2.261569,2.523773,1.01930
 4\H,0,1.796621,2.847159,-0.651685\H,0,0.776628,3.387655,0.673968\\Vers
 ion=ES64L-G16RevA.03\State=1-A\HF=-633.3317128\RMSD=6.596e-09\Dipole=0
 .4354402,3.3557284,0.3053389\Quadrupole=-10.7857308,11.0867716,-0.3010
 408,2.5453244,-6.9621023,-0.0440205\PG=C01 [X(C11H15N1O2)]\\@


 THERE IS NO SCIENCE WITHOUT FANCY, NOR ART WITHOUT FACTS.
     -- VLADIMIR NABAKOV
 Job cpu time:       0 days  0 hours 11 minutes 51.9 seconds.
 Elapsed time:       0 days  0 hours  0 minutes 45.4 seconds.
 File lengths (MBytes):  RWF=    338 Int=      0 D2E=      0 Chk=     67 Scr=      1
 Normal termination of Gaussian 16 at Sat Jan 24 23:44:49 2026.
