 Entering Gaussian System, Link 0=g16
 Input=DDL-S2-cLR-gs-14.gjf
 Output=DDL-S2-cLR-gs-14.log
 Initial command:
 /data/home/wyx/g16/l1.exe "/scr/tmp/wyx/13119/Gau-1531595.inp" -scrdir="/scr/tmp/wyx/13119/"
 Entering Link 1 = /data/home/wyx/g16/l1.exe PID=   1531596.
  
 Copyright (c) 1988,1990,1992,1993,1995,1998,2003,2009,2016,
            Gaussian, Inc.  All Rights Reserved.
  
 This is part of the Gaussian(R) 16 program.  It is based on
 the Gaussian(R) 09 system (copyright 2009, Gaussian, Inc.),
 the Gaussian(R) 03 system (copyright 2003, Gaussian, Inc.),
 the Gaussian(R) 98 system (copyright 1998, Gaussian, Inc.),
 the Gaussian(R) 94 system (copyright 1995, Gaussian, Inc.),
 the Gaussian 92(TM) system (copyright 1992, Gaussian, Inc.),
 the Gaussian 90(TM) system (copyright 1990, Gaussian, Inc.),
 the Gaussian 88(TM) system (copyright 1988, Gaussian, Inc.),
 the Gaussian 86(TM) system (copyright 1986, Carnegie Mellon
 University), and the Gaussian 82(TM) system (copyright 1983,
 Carnegie Mellon University). Gaussian is a federally registered
 trademark of Gaussian, Inc.
  
 This software contains proprietary and confidential information,
 including trade secrets, belonging to Gaussian, Inc.
  
 This software is provided under written license and may be
 used, copied, transmitted, or stored only in accord with that
 written license.
  
 The following legend is applicable only to US Government
 contracts under FAR:
  
                    RESTRICTED RIGHTS LEGEND
  
 Use, reproduction and disclosure by the US Government is
 subject to restrictions as set forth in subparagraphs (a)
 and (c) of the Commercial Computer Software - Restricted
 Rights clause in FAR 52.227-19.
  
 Gaussian, Inc.
 340 Quinnipiac St., Bldg. 40, Wallingford CT 06492
  
  
 ---------------------------------------------------------------
 Warning -- This program may not be used in any manner that
 competes with the business of Gaussian, Inc. or will provide
 assistance to any competitor of Gaussian, Inc.  The licensee
 of this program is prohibited from giving any competitor of
 Gaussian, Inc. access to this program.  By using this program,
 the user acknowledges that Gaussian, Inc. is engaged in the
 business of creating and licensing software in the field of
 computational chemistry and represents and warrants to the
 licensee that it is not a competitor of Gaussian, Inc. and that
 it will not use this program in any manner prohibited above.
 ---------------------------------------------------------------
  

 Cite this work as:
 Gaussian 16, Revision A.03,
 M. J. Frisch, G. W. Trucks, H. B. Schlegel, G. E. Scuseria, 
 M. A. Robb, J. R. Cheeseman, G. Scalmani, V. Barone, 
 G. A. Petersson, H. Nakatsuji, X. Li, M. Caricato, A. V. Marenich, 
 J. Bloino, B. G. Janesko, R. Gomperts, B. Mennucci, H. P. Hratchian, 
 J. V. Ortiz, A. F. Izmaylov, J. L. Sonnenberg, D. Williams-Young, 
 F. Ding, F. Lipparini, F. Egidi, J. Goings, B. Peng, A. Petrone, 
 T. Henderson, D. Ranasinghe, V. G. Zakrzewski, J. Gao, N. Rega, 
 G. Zheng, W. Liang, M. Hada, M. Ehara, K. Toyota, R. Fukuda, 
 J. Hasegawa, M. Ishida, T. Nakajima, Y. Honda, O. Kitao, H. Nakai, 
 T. Vreven, K. Throssell, J. A. Montgomery, Jr., J. E. Peralta, 
 F. Ogliaro, M. J. Bearpark, J. J. Heyd, E. N. Brothers, K. N. Kudin, 
 V. N. Staroverov, T. A. Keith, R. Kobayashi, J. Normand, 
 K. Raghavachari, A. P. Rendell, J. C. Burant, S. S. Iyengar, 
 J. Tomasi, M. Cossi, J. M. Millam, M. Klene, C. Adamo, R. Cammi, 
 J. W. Ochterski, R. L. Martin, K. Morokuma, O. Farkas, 
 J. B. Foresman, and D. J. Fox, Gaussian, Inc., Wallingford CT, 2016.
 
 ******************************************
 Gaussian 16:  ES64L-G16RevA.03 25-Dec-2016
                24-Jan-2026 
 ******************************************
 %nprocshared=16
 Will use up to   16 processors via shared memory.
 %mem=16GB
 %oldchk=DDL-S2-cLR-14.chk
 %chk=DDL-S2-cLR-gs-14.chk
 Copying data from "DDL-S2-cLR-14.chk" to current chk file "DDL-S2-cLR-gs-14.chk"
 IOpt=  2 FromEx=T IUOpen= 4 IOptOp= 5 NList=   0 IFRang= 0 IUIn= 4 IUOut= 2.
 ----------------------------------------------------------------------
 #p CAM-B3LYP TZVP em=gd3bj scrf=(Solvent=Water,NonEquilibrium=Read) Ge
 om=Check Guess=Read
 ----------------------------------------------------------------------
 1/29=2,38=1,172=1/1;
 2/12=2,40=1/2;
 3/5=19,7=101,11=2,14=-4,25=1,30=1,70=6002201,72=1,74=-40,116=-2,124=41/1,2,3;
 4/5=1/1;
 5/5=2,38=6,53=1/2;
 6/7=2,8=2,9=2,10=2,28=1/1;
 99/5=1,9=1/99;
 Leave Link    1 at Sat Jan 24 23:43:02 2026, MaxMem=  2147483648 cpu:               1.0 elap:               0.1
 (Enter /data/home/wyx/g16/l101.exe)
 -------------------
 Title Card Required
 -------------------
 Structure from the checkpoint file:  "DDL-S2-cLR-gs-14.chk"
 Charge =  0 Multiplicity = 1
 Z-Matrix found in chk file.
 O,0,2.749979,-1.558588,0.723699
 O,0,-3.244534,-1.642441,-1.082119
 N,0,-0.703553,1.5158,0.109569
 H,0,-1.010013,2.472961,0.047375
 C,0,-1.245679,-0.758895,-0.153988
 C,0,0.645308,1.300378,0.270669
 C,0,-1.61571,0.54106,-0.231587
 C,0,-2.152033,-1.828898,-0.535311
 C,0,0.105987,-1.111751,0.421047
 H,0,0.00446,-1.445129,1.461992
 H,0,0.532768,-1.96106,-0.108387
 C,0,1.097655,0.027474,0.352242
 C,0,2.494822,-0.386663,0.457875
 C,0,-2.938772,1.07808,-0.661136
 H,0,-3.090105,2.089157,-0.281005
 H,0,-3.009641,1.113732,-1.749021
 H,0,-3.763939,0.459725,-0.319289
 C,0,-1.746545,-3.247606,-0.246257
 H,0,-2.598755,-3.919135,-0.327135
 H,0,-0.990521,-3.582959,-0.960812
 H,0,-1.309271,-3.365095,0.745734
 C,0,3.65222,0.549983,0.214947
 H,0,3.477522,1.242081,-0.604457
 H,0,3.864441,1.132729,1.112726
 H,0,4.526694,-0.058477,-0.003015
 C,0,1.42418,2.579019,0.328225
 H,0,2.251997,2.53045,1.025222
 H,0,1.815846,2.840622,-0.655711
 H,0,0.775194,3.393445,0.64791
 Recover connectivity data from disk.
 ITRead=  0  0  0  0  0  0  0  0  0  0  0  0  0  0  0  0  0  0  0  0
 ITRead=  0  0  0  0  0  0  0  0  0
 MicOpt= -1 -1 -1 -1 -1 -1 -1 -1 -1 -1 -1 -1 -1 -1 -1 -1 -1 -1 -1 -1
 MicOpt= -1 -1 -1 -1 -1 -1 -1 -1 -1
 NAtoms=     29 NQM=       29 NQMF=       0 NMMI=      0 NMMIF=      0
                NMic=       0 NMicF=      0.
                    Isotopes and Nuclear Properties:
 (Nuclear quadrupole moments (NQMom) in fm**2, nuclear magnetic moments (NMagM)
  in nuclear magnetons)

  Atom         1           2           3           4           5           6           7           8           9          10
 IAtWgt=          16          16          14           1          12          12          12          12          12           1
 AtmWgt=  15.9949146  15.9949146  14.0030740   1.0078250  12.0000000  12.0000000  12.0000000  12.0000000  12.0000000   1.0078250
 NucSpn=           0           0           2           1           0           0           0           0           0           1
 AtZEff=   5.6000000   5.6000000   4.5500000   1.0000000   3.6000000   3.6000000   3.6000000   3.6000000   3.6000000   1.0000000
 NQMom=    0.0000000   0.0000000   2.0440000   0.0000000   0.0000000   0.0000000   0.0000000   0.0000000   0.0000000   0.0000000
 NMagM=    0.0000000   0.0000000   0.4037610   2.7928460   0.0000000   0.0000000   0.0000000   0.0000000   0.0000000   2.7928460
 AtZNuc=   8.0000000   8.0000000   7.0000000   1.0000000   6.0000000   6.0000000   6.0000000   6.0000000   6.0000000   1.0000000

  Atom        11          12          13          14          15          16          17          18          19          20
 IAtWgt=           1          12          12          12           1           1           1          12           1           1
 AtmWgt=   1.0078250  12.0000000  12.0000000  12.0000000   1.0078250   1.0078250   1.0078250  12.0000000   1.0078250   1.0078250
 NucSpn=           1           0           0           0           1           1           1           0           1           1
 AtZEff=   1.0000000   3.6000000   3.6000000   3.6000000   1.0000000   1.0000000   1.0000000   3.6000000   1.0000000   1.0000000
 NQMom=    0.0000000   0.0000000   0.0000000   0.0000000   0.0000000   0.0000000   0.0000000   0.0000000   0.0000000   0.0000000
 NMagM=    2.7928460   0.0000000   0.0000000   0.0000000   2.7928460   2.7928460   2.7928460   0.0000000   2.7928460   2.7928460
 AtZNuc=   1.0000000   6.0000000   6.0000000   6.0000000   1.0000000   1.0000000   1.0000000   6.0000000   1.0000000   1.0000000

  Atom        21          22          23          24          25          26          27          28          29
 IAtWgt=           1          12           1           1           1          12           1           1           1
 AtmWgt=   1.0078250  12.0000000   1.0078250   1.0078250   1.0078250  12.0000000   1.0078250   1.0078250   1.0078250
 NucSpn=           1           0           1           1           1           0           1           1           1
 AtZEff=   1.0000000   3.6000000   1.0000000   1.0000000   1.0000000   3.6000000   1.0000000   1.0000000   1.0000000
 NQMom=    0.0000000   0.0000000   0.0000000   0.0000000   0.0000000   0.0000000   0.0000000   0.0000000   0.0000000
 NMagM=    2.7928460   0.0000000   2.7928460   2.7928460   2.7928460   0.0000000   2.7928460   2.7928460   2.7928460
 AtZNuc=   1.0000000   6.0000000   1.0000000   1.0000000   1.0000000   6.0000000   1.0000000   1.0000000   1.0000000
 Leave Link  101 at Sat Jan 24 23:43:05 2026, MaxMem=  2147483648 cpu:               0.9 elap:               0.1
 (Enter /data/home/wyx/g16/l202.exe)
                          Input orientation:                          
 ---------------------------------------------------------------------
 Center     Atomic      Atomic             Coordinates (Angstroms)
 Number     Number       Type             X           Y           Z
 ---------------------------------------------------------------------
      1          8           0        2.749979   -1.558588    0.723699
      2          8           0       -3.244534   -1.642441   -1.082119
      3          7           0       -0.703553    1.515800    0.109569
      4          1           0       -1.010013    2.472961    0.047375
      5          6           0       -1.245679   -0.758895   -0.153988
      6          6           0        0.645308    1.300378    0.270669
      7          6           0       -1.615710    0.541060   -0.231587
      8          6           0       -2.152033   -1.828898   -0.535311
      9          6           0        0.105987   -1.111751    0.421047
     10          1           0        0.004460   -1.445129    1.461992
     11          1           0        0.532768   -1.961060   -0.108387
     12          6           0        1.097655    0.027474    0.352242
     13          6           0        2.494822   -0.386663    0.457875
     14          6           0       -2.938772    1.078080   -0.661136
     15          1           0       -3.090105    2.089157   -0.281005
     16          1           0       -3.009641    1.113732   -1.749021
     17          1           0       -3.763939    0.459725   -0.319289
     18          6           0       -1.746545   -3.247606   -0.246257
     19          1           0       -2.598755   -3.919135   -0.327135
     20          1           0       -0.990521   -3.582959   -0.960812
     21          1           0       -1.309271   -3.365095    0.745734
     22          6           0        3.652220    0.549983    0.214947
     23          1           0        3.477522    1.242081   -0.604457
     24          1           0        3.864441    1.132729    1.112726
     25          1           0        4.526694   -0.058477   -0.003015
     26          6           0        1.424180    2.579019    0.328225
     27          1           0        2.251997    2.530450    1.025222
     28          1           0        1.815846    2.840622   -0.655711
     29          1           0        0.775194    3.393445    0.647910
 ---------------------------------------------------------------------
                    Distance matrix (angstroms):
                    1          2          3          4          5
     1  O    0.000000
     2  O    6.261166   0.000000
     3  N    4.664322   4.225067   0.000000
     4  H    5.554128   4.817196   1.006947   0.000000
     5  C    4.168348   2.374342   2.353211   3.246687   0.000000
     6  C    3.578905   5.061728   1.375422   2.040808   2.827856
     7  C    4.937645   2.853796   1.377874   2.043754   1.353820
     8  C    5.068323   1.235849   3.701482   4.488844   1.453200
     9  C    2.698510   3.710408   2.767020   3.772963   1.510686
    10  H    2.845316   4.131270   3.331281   4.287392   2.155262
    11  H    2.402161   3.913781   3.696559   4.697337   2.147127
    12  C    2.320290   4.868328   2.349118   3.242779   2.523065
    13  C    1.228485   6.073612   3.737684   4.542007   3.808449
    14  C    6.421189   2.769829   2.404535   2.483504   2.549165
    15  H    6.958596   3.819745   2.485340   2.140542   3.395503
    16  H    6.813873   2.845421   2.988989   3.012151   3.026950
    17  H    6.898735   2.295821   3.265758   3.430987   2.802498
    18  C    4.900237   2.349296   4.889221   5.775256   2.540288
    19  H    5.940151   2.484022   5.772436   6.597215   3.442080
    20  H    4.574603   2.976726   5.217797   6.139299   2.948119
    21  H    4.443137   3.170777   4.959308   5.887288   2.757865
    22  C    2.349242   7.352164   4.462809   5.046022   5.083177
    23  H    3.183876   7.330393   4.250429   4.698715   5.149316
    24  H    2.938802   7.940808   4.692509   5.166381   5.594295
    25  H    2.436219   8.004086   5.463196   6.088172   5.816672
    26  C    4.362790   6.450324   2.388617   2.452635   4.301435
    27  H    4.130270   7.215661   3.256257   3.405906   4.944094
    28  H    4.704086   6.774003   2.947572   2.935129   4.751966
    29  H    5.331806   6.671684   2.449909   2.096401   4.687099
                    6          7          8          9         10
     6  C    0.000000
     7  C    2.437422   0.000000
     8  C    4.274001   2.448794   0.000000
     9  C    2.476257   2.474259   2.554912   0.000000
    10  H    3.060677   3.072150   2.964281   1.097732   0.000000
    11  H    3.285320   3.300264   2.721743   1.088011   1.735334
    12  C    1.353350   2.822583   3.846341   1.511944   2.143637
    13  C    2.510350   4.269953   4.965856   2.496726   2.886261
    14  C    3.709893   1.491106   3.014185   3.903465   4.420053
    15  H    3.857438   2.138431   4.036806   4.577520   5.010544
    16  H    4.180028   2.138598   3.296613   4.401035   5.093445
    17  H    4.527274   2.151556   2.807615   4.241929   4.582822
    18  C    5.164526   3.790953   1.503564   2.905004   3.038594
    19  H    6.174515   4.568243   2.147554   3.969485   4.012282
    20  H    5.295230   4.234402   2.146367   3.036237   3.380870
    21  H    5.080620   4.038206   2.170536   2.680660   2.434170
    22  C    3.099632   5.286829   6.317540   3.921684   4.340708
    23  H    2.964908   5.154753   6.413079   4.237857   4.853192
    24  H    3.331664   5.673562   6.905449   4.431939   4.654760
    25  H    4.121474   6.175825   6.929872   4.564194   4.951732
    26  C    1.498291   3.702377   5.741492   3.920208   4.415292
    27  H    2.159601   4.527295   6.390200   4.270365   4.587747
    28  H    2.144922   4.152523   6.128864   4.438950   5.112088
    29  H    2.130754   3.824400   6.102584   4.560274   4.966745
                   11         12         13         14         15
    11  H    0.000000
    12  C    2.117910   0.000000
    13  C    2.578572   1.461076   0.000000
    14  C    4.646880   4.292255   5.737735   0.000000
    15  H    5.436843   4.710507   6.153620   1.090724   0.000000
    16  H    4.969375   4.739741   6.117245   1.090774   1.764369
    17  H    4.936230   4.926753   6.363367   1.086335   1.763680
    18  C    2.620969   4.378792   5.164300   4.506117   5.503399
    19  H    3.699776   5.449837   6.248130   5.019893   6.028526
    20  H    2.382770   4.372621   4.937266   5.060709   6.086320
    21  H    2.468592   4.178236   4.839943   4.937242   5.828759
    22  C    4.017569   2.611066   1.508605   6.669901   6.933540
    23  H    4.379244   2.838012   2.178774   6.418640   6.629923
    24  H    4.707727   3.074903   2.147845   7.030880   7.157021
    25  H    4.425197   3.448464   2.109177   7.580110   7.918664
    26  C    4.647318   2.572465   3.155686   4.718793   4.581473
    27  H    4.941101   2.837304   2.981677   5.647766   5.517157
    28  H    5.000200   3.073364   3.480869   5.070796   4.977294
    29  H    5.413084   3.394284   4.157217   4.568157   4.183848
                   16         17         18         19         20
    16  H    0.000000
    17  H    1.743796   0.000000
    18  C    4.782780   4.221317   0.000000
    19  H    5.245983   4.531239   1.088005   0.000000
    20  H    5.172719   4.944360   1.092988   1.760959   0.000000
    21  H    5.401384   4.667860   1.090440   1.766572   1.749676
    22  C    6.968169   7.435924   6.616725   7.703347   6.326031
    23  H    6.588610   7.289181   6.897570   7.977230   6.585697
    24  H    7.446003   7.790750   7.246884   8.328711   7.078695
    25  H    7.824254   8.312831   7.041537   8.110595   6.616571
    26  C    5.110850   5.641565   6.658310   7.670692   6.742579
    27  H    6.114601   6.502853   7.140793   8.182653   7.199446
    28  H    5.240496   6.075842   7.065749   8.080283   7.016493
    29  H    5.026663   5.490530   7.159767   8.112217   7.374005
                   21         22         23         24         25
    21  H    0.000000
    22  C    6.342394   0.000000
    23  H    6.779563   1.086712   0.000000
    24  H    6.865304   1.091164   1.763627   0.000000
    25  H    6.749284   1.087399   1.775935   1.761371   0.000000
    26  C    6.555803   3.015623   2.621738   2.943140   4.085547
    27  H    6.893344   2.557229   2.411983   2.135710   3.596396
    28  H    7.088112   3.062245   2.306323   3.200158   4.022373
    29  H    7.073360   4.068171   3.674148   3.856208   5.139379
                   26         27         28         29
    26  C    0.000000
    27  H    1.083257   0.000000
    28  H    1.090857   1.764078   0.000000
    29  H    1.089344   1.751591   1.757270   0.000000
 Stoichiometry    C11H15NO2
 Framework group  C1[X(C11H15NO2)]
 Deg. of freedom    81
 Full point group                 C1      NOp   1
 RotChk:  IX=0 Diff= 6.15D-16
 Largest Abelian subgroup         C1      NOp   1
 Largest concise Abelian subgroup C1      NOp   1
                         Standard orientation:                         
 ---------------------------------------------------------------------
 Center     Atomic      Atomic             Coordinates (Angstroms)
 Number     Number       Type             X           Y           Z
 ---------------------------------------------------------------------
      1          8           0       -2.282088   -2.286562   -0.159304
      2          8           0        3.603087   -0.237059    0.446044
      3          7           0       -0.034254    1.799553   -0.241815
      4          1           0       -0.066864    2.805969   -0.244475
      5          6           0        1.289636   -0.139122   -0.079172
      6          6           0       -1.234076    1.135384   -0.136490
      7          6           0        1.201505    1.211825   -0.080537
      8          6           0        2.559832   -0.815512    0.123036
      9          6           0        0.058995   -0.962503   -0.378742
     10          1           0        0.077465   -1.315126   -1.418132
     11          1           0        0.051202   -1.866137    0.227189
     12          6           0       -1.231817   -0.217898   -0.123121
     13          6           0       -2.398331   -1.081089    0.046847
     14          6           0        2.316531    2.188545    0.081116
     15          1           0        2.042178    3.162766   -0.325458
     16          1           0        2.567157    2.322165    1.134264
     17          1           0        3.226522    1.858777   -0.412130
     18          6           0        2.617401   -2.304784   -0.075612
     19          1           0        3.647190   -2.645800   -0.159253
     20          1           0        2.164192   -2.822220    0.773790
     21          1           0        2.074154   -2.630926   -0.963065
     22          6           0       -3.741287   -0.570005    0.506362
     23          1           0       -3.667576    0.196470    1.273190
     24          1           0       -4.298761   -0.156171   -0.335422
     25          1           0       -4.300690   -1.418604    0.892864
     26          6           0       -2.399117    2.073207   -0.046804
     27          1           0       -3.272548    1.702185   -0.569209
     28          1           0       -2.671047    2.257485    0.993419
     29          1           0       -2.136415    3.032979   -0.490082
 ---------------------------------------------------------------------
 Rotational constants (GHZ):           1.0839637           0.4891773           0.3460594
 Leave Link  202 at Sat Jan 24 23:43:06 2026, MaxMem=  2147483648 cpu:               0.0 elap:               0.0
 (Enter /data/home/wyx/g16/l301.exe)
 Standard basis: TZVP (5D, 7F)
 Ernie: Thresh=  0.10000D-02 Tol=  0.10000D-05 Strict=F.
 There are   370 symmetry adapted cartesian basis functions of A   symmetry.
 There are   356 symmetry adapted basis functions of A   symmetry.
   356 basis functions,   610 primitive gaussians,   370 cartesian basis functions
    52 alpha electrons       52 beta electrons
       nuclear repulsion energy       900.6285814264 Hartrees.
 IExCor=20419 DFT=T Ex+Corr=CAM-B3LYP ExCW=0 ScaHFX=  1.000000
 ScaDFX=  1.000000  1.000000  1.000000  0.810000 ScalE2=  1.000000  1.000000
 IRadAn=      5 IRanWt=     -1 IRanGd=            0 ICorTp=0 IEmpDi=141
 HFx  wShort=  0.000000 wLong=  0.330000 cFull=  0.190000 cShort=  0.000000 cLong=  0.460000
 DFx  wShort=  0.000000 wLong=  0.330000 cFull=  0.190000 cShort=  0.000000 cLong=  0.460000
 NAtoms=   29 NActive=   29 NUniq=   29 SFac= 1.00D+00 NAtFMM=   60 NAOKFM=F Big=F
 Integral buffers will be    131072 words long.
 Raffenetti 2 integral format.
 Two-electron integral symmetry is turned on.
 R6Disp:  Grimme-D3(BJ) Dispersion energy=       -0.0261957601 Hartrees.
 Nuclear repulsion after empirical dispersion term =      900.6023856664 Hartrees.
 ------------------------------------------------------------------------------
 Polarizable Continuum Model (PCM)
 =================================
 Model                : PCM.
 Atomic radii         : UFF (Universal Force Field).
 Polarization charges : Total charges.
 Charge compensation  : None.
 Solution method      : On-the-fly selection.
 Cavity type          : Scaled VdW (van der Waals Surface) (Alpha=1.100).
 Cavity algorithm     : GePol (No added spheres)
                        Default sphere list used, NSphG=   29.
                        Lebedev-Laikov grids with approx.  5.0 points / Ang**2.
                        Smoothing algorithm: York/Karplus (Gamma=1.0000).
                        Polarization charges: spherical gaussians, with
                                              point-specific exponents (IZeta= 3).
                        Self-potential: point-specific (ISelfS= 7).
                        Self-field    : sphere-specific E.n sum rule (ISelfD= 2).
 Solvent              : Water, Eps=  78.355300 Eps(inf)=   1.777849
 ------------------------------------------------------------------------------
 GePol: Number of generator spheres                  =      29
 GePol: Total number of spheres                      =      29
 GePol: Number of exposed spheres                    =      29 (100.00%)
 GePol: Number of points                             =    2103
 GePol: Average weight of points                     =       0.13
 GePol: Minimum weight of points                     =   0.12D-09
 GePol: Maximum weight of points                     =    0.20577
 GePol: Number of points with low weight             =     140
 GePol: Fraction of low-weight points (<1% of avg)   =       6.66%
 GePol: Cavity surface area                          =    268.369 Ang**2
 GePol: Cavity volume                                =    286.184 Ang**3
 Leave Link  301 at Sat Jan 24 23:43:06 2026, MaxMem=  2147483648 cpu:               0.6 elap:               0.0
 (Enter /data/home/wyx/g16/l302.exe)
 NPDir=0 NMtPBC=     1 NCelOv=     1 NCel=       1 NClECP=     1 NCelD=      1
         NCelK=      1 NCelE2=     1 NClLst=     1 CellRange=     0.0.
 One-electron integrals computed using PRISM.
 One-electron integral symmetry used in STVInt
 NBasis=   356 RedAO= T EigKep=  4.57D-05  NBF=   356
 NBsUse=   356 1.00D-06 EigRej= -1.00D+00 NBFU=   356
 Precomputing XC quadrature grid using
 IXCGrd= 4 IRadAn=           5 IRanWt=          -1 IRanGd=           0 AccXCQ= 0.00D+00.
 Generated NRdTot=       0 NPtTot=           0 NUsed=           0 NTot=          32
 NSgBfM=   366   366   366   366   366 MxSgAt=    29 MxSgA2=    29.
 Leave Link  302 at Sat Jan 24 23:43:06 2026, MaxMem=  2147483648 cpu:               3.1 elap:               0.2
 (Enter /data/home/wyx/g16/l303.exe)
 DipDrv:  MaxL=1.
 Leave Link  303 at Sat Jan 24 23:43:06 2026, MaxMem=  2147483648 cpu:               0.6 elap:               0.1
 (Enter /data/home/wyx/g16/l401.exe)
 Initial guess from the checkpoint file:  "DDL-S2-cLR-gs-14.chk"
 B after Tr=    -0.000000    0.000000   -0.000000
         Rot=    1.000000   -0.000000   -0.000000   -0.000000 Ang=   0.00 deg.
 Guess basis will be translated and rotated to current coordinates.
 JPrj=2 DoOrth=T DoCkMO=T.
 Leave Link  401 at Sat Jan 24 23:43:07 2026, MaxMem=  2147483648 cpu:               2.2 elap:               0.2
 (Enter /data/home/wyx/g16/l502.exe)
 Integral symmetry usage will be decided dynamically.
 Closed shell SCF:
 Using DIIS extrapolation, IDIIS=  1040.
 NGot=  2147483648 LenX=  2147200095 LenY=  2147062754
 Requested convergence on RMS density matrix=1.00D-08 within 128 cycles.
 Requested convergence on MAX density matrix=1.00D-06.
 Requested convergence on             energy=1.00D-06.
 No special actions if energy rises.
 Fock matrices will be formed incrementally for  20 cycles.

 Cycle   1  Pass 1  IDiag  1:
 FoFJK:  IHMeth= 1 ICntrl=       0 DoSepK=T KAlg= 0 I1Cent=           0 FoldK=F
 IRaf=         1 NMat=       1 IRICut=       1 DoRegI=T DoRafI=F ISym2E= 0 IDoP0=0 IntGTp=1.
 FoFCou: FMM=F IPFlag=           0 FMFlag=      100000 FMFlg1=           0
         NFxFlg=           0 DoJE=T BraDBF=F KetDBF=F FulRan=T
         wScrn=  0.000000 ICntrl=       500 IOpCl=  0 I1Cent=           0 NGrid=           0
         NMat0=    1 NMatS0=      1 NMatT0=    0 NMatD0=    1 NMtDS0=    0 NMtDT0=    0
 Symmetry not used in FoFCou.
 Inv3:  Mode=1 IEnd=    13267827.
 Iteration    1 A*A^-1 deviation from unit magnitude is 2.55D-15 for   1748.
 Iteration    1 A*A^-1 deviation from orthogonality  is 1.62D-15 for   1852   1655.
 Iteration    1 A^-1*A deviation from unit magnitude is 2.66D-15 for    721.
 Iteration    1 A^-1*A deviation from orthogonality  is 1.60D-15 for   1139    473.
 NEqPCM:  Using non-equilibrium solvation (IEInf=1, Eps=  78.3553, EpsInf=   1.7778)
 Inv3:  Mode=1 IEnd=    13267827.
 Iteration    1 A*A^-1 deviation from unit magnitude is 3.11D-15 for    231.
 Iteration    1 A*A^-1 deviation from orthogonality  is 2.17D-15 for    561    368.
 Iteration    1 A^-1*A deviation from unit magnitude is 3.55D-15 for    231.
 Iteration    1 A^-1*A deviation from orthogonality  is 2.76D-15 for   1510   1278.
 E= -633.329451787599    
 DIIS: error= 7.48D-04 at cycle   1 NSaved=   1.
 NSaved= 1 IEnMin= 1 EnMin= -633.329451787599     IErMin= 1 ErrMin= 7.48D-04
 ErrMax= 7.48D-04  0.00D+00 EMaxC= 1.00D-01 BMatC= 1.23D-04 BMatP= 1.23D-04
 IDIUse=3 WtCom= 9.93D-01 WtEn= 7.48D-03
 Coeff-Com:  0.100D+01
 Coeff-En:   0.100D+01
 Coeff:      0.100D+01
 Gap=     0.240 Goal=   None    Shift=    0.000
 RMSDP=4.19D-04 MaxDP=2.06D-02              OVMax= 1.20D-02

 Cycle   2  Pass 1  IDiag  1:
 RMSU=  4.17D-04    CP:  1.00D+00
 E= -633.329667247909     Delta-E=       -0.000215460309 Rises=F Damp=F
 DIIS: error= 5.22D-04 at cycle   2 NSaved=   2.
 NSaved= 2 IEnMin= 2 EnMin= -633.329667247909     IErMin= 2 ErrMin= 5.22D-04
 ErrMax= 5.22D-04  0.00D+00 EMaxC= 1.00D-01 BMatC= 1.22D-04 BMatP= 1.23D-04
 IDIUse=3 WtCom= 9.95D-01 WtEn= 5.22D-03
 Coeff-Com:  0.499D+00 0.501D+00
 Coeff-En:   0.000D+00 0.100D+01
 Coeff:      0.497D+00 0.503D+00
 Gap=     0.239 Goal=   None    Shift=    0.000
 RMSDP=1.20D-04 MaxDP=6.02D-03 DE=-2.15D-04 OVMax= 3.01D-03

 Cycle   3  Pass 1  IDiag  1:
 RMSU=  1.12D-04    CP:  1.00D+00  9.70D-01
 E= -633.329761103319     Delta-E=       -0.000093855410 Rises=F Damp=F
 DIIS: error= 2.01D-04 at cycle   3 NSaved=   3.
 NSaved= 3 IEnMin= 3 EnMin= -633.329761103319     IErMin= 3 ErrMin= 2.01D-04
 ErrMax= 2.01D-04  0.00D+00 EMaxC= 1.00D-01 BMatC= 1.59D-05 BMatP= 1.22D-04
 IDIUse=3 WtCom= 9.98D-01 WtEn= 2.01D-03
 Coeff-Com:  0.696D-01 0.244D+00 0.686D+00
 Coeff-En:   0.000D+00 0.450D-02 0.995D+00
 Coeff:      0.694D-01 0.244D+00 0.687D+00
 Gap=     0.239 Goal=   None    Shift=    0.000
 RMSDP=3.14D-05 MaxDP=1.42D-03 DE=-9.39D-05 OVMax= 1.62D-03

 Cycle   4  Pass 1  IDiag  1:
 RMSU=  2.41D-05    CP:  1.00D+00  9.86D-01  1.17D+00
 E= -633.329774102513     Delta-E=       -0.000012999195 Rises=F Damp=F
 DIIS: error= 5.90D-05 at cycle   4 NSaved=   4.
 NSaved= 4 IEnMin= 4 EnMin= -633.329774102513     IErMin= 4 ErrMin= 5.90D-05
 ErrMax= 5.90D-05  0.00D+00 EMaxC= 1.00D-01 BMatC= 1.13D-06 BMatP= 1.59D-05
 IDIUse=1 WtCom= 1.00D+00 WtEn= 0.00D+00
 Coeff-Com: -0.119D-01 0.217D-01 0.204D+00 0.786D+00
 Coeff:     -0.119D-01 0.217D-01 0.204D+00 0.786D+00
 Gap=     0.239 Goal=   None    Shift=    0.000
 RMSDP=2.08D-05 MaxDP=1.09D-03 DE=-1.30D-05 OVMax= 9.94D-04

 Cycle   5  Pass 1  IDiag  1:
 RMSU=  1.12D-05    CP:  1.00D+00  9.98D-01  1.31D+00  1.08D+00
 E= -633.329775643683     Delta-E=       -0.000001541170 Rises=F Damp=F
 DIIS: error= 2.35D-05 at cycle   5 NSaved=   5.
 NSaved= 5 IEnMin= 5 EnMin= -633.329775643683     IErMin= 5 ErrMin= 2.35D-05
 ErrMax= 2.35D-05  0.00D+00 EMaxC= 1.00D-01 BMatC= 3.14D-07 BMatP= 1.13D-06
 IDIUse=1 WtCom= 1.00D+00 WtEn= 0.00D+00
 Coeff-Com: -0.132D-01-0.272D-01-0.197D-02 0.361D+00 0.681D+00
 Coeff:     -0.132D-01-0.272D-01-0.197D-02 0.361D+00 0.681D+00
 Gap=     0.239 Goal=   None    Shift=    0.000
 RMSDP=8.08D-06 MaxDP=3.51D-04 DE=-1.54D-06 OVMax= 3.61D-04

 Cycle   6  Pass 1  IDiag  1:
 RMSU=  3.59D-06    CP:  1.00D+00  9.97D-01  1.36D+00  1.23D+00  1.08D+00
 E= -633.329776101120     Delta-E=       -0.000000457436 Rises=F Damp=F
 DIIS: error= 1.55D-05 at cycle   6 NSaved=   6.
 NSaved= 6 IEnMin= 6 EnMin= -633.329776101120     IErMin= 6 ErrMin= 1.55D-05
 ErrMax= 1.55D-05  0.00D+00 EMaxC= 1.00D-01 BMatC= 3.26D-08 BMatP= 3.14D-07
 IDIUse=1 WtCom= 1.00D+00 WtEn= 0.00D+00
 Coeff-Com: -0.124D-02-0.145D-01-0.236D-01 0.632D-02 0.189D+00 0.844D+00
 Coeff:     -0.124D-02-0.145D-01-0.236D-01 0.632D-02 0.189D+00 0.844D+00
 Gap=     0.239 Goal=   None    Shift=    0.000
 RMSDP=3.67D-06 MaxDP=1.37D-04 DE=-4.57D-07 OVMax= 2.90D-04

 Cycle   7  Pass 1  IDiag  1:
 RMSU=  1.63D-06    CP:  1.00D+00  9.95D-01  1.38D+00  1.30D+00  1.19D+00
                    CP:  1.20D+00
 E= -633.329776187615     Delta-E=       -0.000000086496 Rises=F Damp=F
 DIIS: error= 6.24D-06 at cycle   7 NSaved=   7.
 NSaved= 7 IEnMin= 7 EnMin= -633.329776187615     IErMin= 7 ErrMin= 6.24D-06
 ErrMax= 6.24D-06  0.00D+00 EMaxC= 1.00D-01 BMatC= 1.49D-08 BMatP= 3.26D-08
 IDIUse=1 WtCom= 1.00D+00 WtEn= 0.00D+00
 Coeff-Com:  0.207D-02-0.338D-02-0.781D-02-0.674D-01-0.774D-01 0.426D+00
 Coeff-Com:  0.728D+00
 Coeff:      0.207D-02-0.338D-02-0.781D-02-0.674D-01-0.774D-01 0.426D+00
 Coeff:      0.728D+00
 Gap=     0.239 Goal=   None    Shift=    0.000
 RMSDP=1.62D-06 MaxDP=7.28D-05 DE=-8.65D-08 OVMax= 1.46D-04

 Cycle   8  Pass 1  IDiag  1:
 RMSU=  5.97D-07    CP:  1.00D+00  9.94D-01  1.39D+00  1.33D+00  1.24D+00
                    CP:  1.40D+00  1.10D+00
 E= -633.329776214589     Delta-E=       -0.000000026974 Rises=F Damp=F
 DIIS: error= 2.10D-06 at cycle   8 NSaved=   8.
 NSaved= 8 IEnMin= 8 EnMin= -633.329776214589     IErMin= 8 ErrMin= 2.10D-06
 ErrMax= 2.10D-06  0.00D+00 EMaxC= 1.00D-01 BMatC= 1.49D-09 BMatP= 1.49D-08
 IDIUse=1 WtCom= 1.00D+00 WtEn= 0.00D+00
 Coeff-Com:  0.920D-03 0.349D-03 0.203D-02-0.223D-01-0.708D-01 0.761D-02
 Coeff-Com:  0.239D+00 0.843D+00
 Coeff:      0.920D-03 0.349D-03 0.203D-02-0.223D-01-0.708D-01 0.761D-02
 Coeff:      0.239D+00 0.843D+00
 Gap=     0.239 Goal=   None    Shift=    0.000
 RMSDP=6.86D-07 MaxDP=2.19D-05 DE=-2.70D-08 OVMax= 5.83D-05

 Cycle   9  Pass 1  IDiag  1:
 RMSU=  1.88D-07    CP:  1.00D+00  9.93D-01  1.39D+00  1.34D+00  1.25D+00
                    CP:  1.51D+00  1.30D+00  1.17D+00
 E= -633.329776217931     Delta-E=       -0.000000003342 Rises=F Damp=F
 DIIS: error= 8.12D-07 at cycle   9 NSaved=   9.
 NSaved= 9 IEnMin= 9 EnMin= -633.329776217931     IErMin= 9 ErrMin= 8.12D-07
 ErrMax= 8.12D-07  0.00D+00 EMaxC= 1.00D-01 BMatC= 1.55D-10 BMatP= 1.49D-09
 IDIUse=1 WtCom= 1.00D+00 WtEn= 0.00D+00
 Coeff-Com:  0.608D-04 0.469D-03 0.179D-02 0.273D-02-0.163D-01-0.557D-01
 Coeff-Com: -0.457D-02 0.311D+00 0.760D+00
 Coeff:      0.608D-04 0.469D-03 0.179D-02 0.273D-02-0.163D-01-0.557D-01
 Coeff:     -0.457D-02 0.311D+00 0.760D+00
 Gap=     0.239 Goal=   None    Shift=    0.000
 RMSDP=1.78D-07 MaxDP=6.88D-06 DE=-3.34D-09 OVMax= 1.81D-05

 Cycle  10  Pass 1  IDiag  1:
 RMSU=  7.40D-08    CP:  1.00D+00  9.93D-01  1.39D+00  1.34D+00  1.25D+00
                    CP:  1.53D+00  1.36D+00  1.26D+00  1.04D+00
 E= -633.329776218256     Delta-E=       -0.000000000325 Rises=F Damp=F
 DIIS: error= 1.91D-07 at cycle  10 NSaved=  10.
 NSaved=10 IEnMin=10 EnMin= -633.329776218256     IErMin=10 ErrMin= 1.91D-07
 ErrMax= 1.91D-07  0.00D+00 EMaxC= 1.00D-01 BMatC= 2.71D-11 BMatP= 1.55D-10
 IDIUse=1 WtCom= 1.00D+00 WtEn= 0.00D+00
 Coeff-Com: -0.708D-04 0.225D-03 0.155D-03 0.329D-02 0.178D-02-0.208D-01
 Coeff-Com: -0.253D-01-0.545D-02 0.262D+00 0.784D+00
 Coeff:     -0.708D-04 0.225D-03 0.155D-03 0.329D-02 0.178D-02-0.208D-01
 Coeff:     -0.253D-01-0.545D-02 0.262D+00 0.784D+00
 Gap=     0.239 Goal=   None    Shift=    0.000
 RMSDP=8.11D-08 MaxDP=4.07D-06 DE=-3.25D-10 OVMax= 4.72D-06

 Cycle  11  Pass 1  IDiag  1:
 RMSU=  2.84D-08    CP:  1.00D+00  9.93D-01  1.39D+00  1.34D+00  1.24D+00
                    CP:  1.54D+00  1.38D+00  1.30D+00  1.17D+00  1.18D+00
 E= -633.329776218293     Delta-E=       -0.000000000037 Rises=F Damp=F
 DIIS: error= 8.11D-08 at cycle  11 NSaved=  11.
 NSaved=11 IEnMin=11 EnMin= -633.329776218293     IErMin=11 ErrMin= 8.11D-08
 ErrMax= 8.11D-08  0.00D+00 EMaxC= 1.00D-01 BMatC= 3.92D-12 BMatP= 2.71D-11
 IDIUse=1 WtCom= 1.00D+00 WtEn= 0.00D+00
 Coeff-Com: -0.332D-04 0.624D-04-0.228D-03 0.981D-03 0.302D-02 0.596D-03
 Coeff-Com: -0.613D-02-0.461D-01 0.998D-02 0.283D+00 0.755D+00
 Coeff:     -0.332D-04 0.624D-04-0.228D-03 0.981D-03 0.302D-02 0.596D-03
 Coeff:     -0.613D-02-0.461D-01 0.998D-02 0.283D+00 0.755D+00
 Gap=     0.239 Goal=   None    Shift=    0.000
 RMSDP=2.49D-08 MaxDP=1.22D-06 DE=-3.68D-11 OVMax= 1.36D-06

 Cycle  12  Pass 1  IDiag  1:
 RMSU=  9.51D-09    CP:  1.00D+00  9.93D-01  1.39D+00  1.34D+00  1.24D+00
                    CP:  1.54D+00  1.38D+00  1.30D+00  1.20D+00  1.26D+00
                    CP:  9.90D-01
 E= -633.329776218296     Delta-E=       -0.000000000003 Rises=F Damp=F
 DIIS: error= 3.92D-08 at cycle  12 NSaved=  12.
 NSaved=12 IEnMin=12 EnMin= -633.329776218296     IErMin=12 ErrMin= 3.92D-08
 ErrMax= 3.92D-08  0.00D+00 EMaxC= 1.00D-01 BMatC= 6.28D-13 BMatP= 3.92D-12
 IDIUse=1 WtCom= 1.00D+00 WtEn= 0.00D+00
 Coeff-Com: -0.845D-05 0.111D-04-0.108D-03-0.104D-04 0.929D-03 0.219D-02
 Coeff-Com:  0.769D-03-0.188D-01-0.292D-01-0.174D-01 0.303D+00 0.758D+00
 Coeff:     -0.845D-05 0.111D-04-0.108D-03-0.104D-04 0.929D-03 0.219D-02
 Coeff:      0.769D-03-0.188D-01-0.292D-01-0.174D-01 0.303D+00 0.758D+00
 Gap=     0.239 Goal=   None    Shift=    0.000
 RMSDP=1.32D-08 MaxDP=7.36D-07 DE=-3.07D-12 OVMax= 5.82D-07

 Cycle  13  Pass 1  IDiag  1:
 RMSU=  4.64D-09    CP:  1.00D+00  9.93D-01  1.39D+00  1.34D+00  1.24D+00
                    CP:  1.54D+00  1.38D+00  1.30D+00  1.21D+00  1.32D+00
                    CP:  1.18D+00  1.06D+00
 E= -633.329776218300     Delta-E=       -0.000000000005 Rises=F Damp=F
 DIIS: error= 2.05D-08 at cycle  13 NSaved=  13.
 NSaved=13 IEnMin=13 EnMin= -633.329776218300     IErMin=13 ErrMin= 2.05D-08
 ErrMax= 2.05D-08  0.00D+00 EMaxC= 1.00D-01 BMatC= 1.08D-13 BMatP= 6.28D-13
 IDIUse=1 WtCom= 1.00D+00 WtEn= 0.00D+00
 Coeff-Com:  0.594D-06-0.502D-06-0.280D-04-0.160D-03 0.876D-04 0.108D-02
 Coeff-Com:  0.148D-02-0.379D-02-0.162D-01-0.504D-01 0.656D-01 0.394D+00
 Coeff-Com:  0.608D+00
 Coeff:      0.594D-06-0.502D-06-0.280D-04-0.160D-03 0.876D-04 0.108D-02
 Coeff:      0.148D-02-0.379D-02-0.162D-01-0.504D-01 0.656D-01 0.394D+00
 Coeff:      0.608D+00
 Gap=     0.239 Goal=   None    Shift=    0.000
 RMSDP=2.40D-09 MaxDP=1.33D-07 DE=-4.55D-12 OVMax= 1.59D-07

 Error on total polarization charges =  0.00816
 SCF Done:  E(RCAM-B3LYP) =  -633.329776218     A.U. after   13 cycles
            NFock= 13  Conv=0.24D-08     -V/T= 2.0042
 KE= 6.307065983816D+02 PE=-3.277389124237D+03 EE= 1.112750363971D+03
 Leave Link  502 at Sat Jan 24 23:43:59 2026, MaxMem=  2147483648 cpu:             820.0 elap:              52.0
 (Enter /data/home/wyx/g16/l601.exe)
 Copying SCF densities to generalized density rwf, IOpCl= 0 IROHF=0.

 **********************************************************************

            Population analysis using the SCF density.

 **********************************************************************

 Orbital symmetries:
       Occupied  (A) (A) (A) (A) (A) (A) (A) (A) (A) (A) (A) (A)
                 (A) (A) (A) (A) (A) (A) (A) (A) (A) (A) (A) (A)
                 (A) (A) (A) (A) (A) (A) (A) (A) (A) (A) (A) (A)
                 (A) (A) (A) (A) (A) (A) (A) (A) (A) (A) (A) (A)
                 (A) (A) (A) (A)
       Virtual   (A) (A) (A) (A) (A) (A) (A) (A) (A) (A) (A) (A)
                 (A) (A) (A) (A) (A) (A) (A) (A) (A) (A) (A) (A)
                 (A) (A) (A) (A) (A) (A) (A) (A) (A) (A) (A) (A)
                 (A) (A) (A) (A) (A) (A) (A) (A) (A) (A) (A) (A)
                 (A) (A) (A) (A) (A) (A) (A) (A) (A) (A) (A) (A)
                 (A) (A) (A) (A) (A) (A) (A) (A) (A) (A) (A) (A)
                 (A) (A) (A) (A) (A) (A) (A) (A) (A) (A) (A) (A)
                 (A) (A) (A) (A) (A) (A) (A) (A) (A) (A) (A) (A)
                 (A) (A) (A) (A) (A) (A) (A) (A) (A) (A) (A) (A)
                 (A) (A) (A) (A) (A) (A) (A) (A) (A) (A) (A) (A)
                 (A) (A) (A) (A) (A) (A) (A) (A) (A) (A) (A) (A)
                 (A) (A) (A) (A) (A) (A) (A) (A) (A) (A) (A) (A)
                 (A) (A) (A) (A) (A) (A) (A) (A) (A) (A) (A) (A)
                 (A) (A) (A) (A) (A) (A) (A) (A) (A) (A) (A) (A)
                 (A) (A) (A) (A) (A) (A) (A) (A) (A) (A) (A) (A)
                 (A) (A) (A) (A) (A) (A) (A) (A) (A) (A) (A) (A)
                 (A) (A) (A) (A) (A) (A) (A) (A) (A) (A) (A) (A)
                 (A) (A) (A) (A) (A) (A) (A) (A) (A) (A) (A) (A)
                 (A) (A) (A) (A) (A) (A) (A) (A) (A) (A) (A) (A)
                 (A) (A) (A) (A) (A) (A) (A) (A) (A) (A) (A) (A)
                 (A) (A) (A) (A) (A) (A) (A) (A) (A) (A) (A) (A)
                 (A) (A) (A) (A) (A) (A) (A) (A) (A) (A) (A) (A)
                 (A) (A) (A) (A) (A) (A) (A) (A) (A) (A) (A) (A)
                 (A) (A) (A) (A) (A) (A) (A) (A) (A) (A) (A) (A)
                 (A) (A) (A) (A) (A) (A) (A) (A) (A) (A) (A) (A)
                 (A) (A) (A) (A)
 The electronic state is 1-A.
 Alpha  occ. eigenvalues --  -19.18389 -19.16999 -14.44361 -10.33925 -10.32889
 Alpha  occ. eigenvalues --  -10.32432 -10.31670 -10.26100 -10.25402 -10.25207
 Alpha  occ. eigenvalues --  -10.24799 -10.24659 -10.24618 -10.23370  -1.12506
 Alpha  occ. eigenvalues --   -1.10768  -1.07780  -0.91530  -0.90561  -0.83990
 Alpha  occ. eigenvalues --   -0.82586  -0.81742  -0.78572  -0.74340  -0.71351
 Alpha  occ. eigenvalues --   -0.68907  -0.61831  -0.58471  -0.57061  -0.55397
 Alpha  occ. eigenvalues --   -0.54769  -0.54067  -0.52648  -0.52037  -0.50916
 Alpha  occ. eigenvalues --   -0.50243  -0.49448  -0.49165  -0.48553  -0.48343
 Alpha  occ. eigenvalues --   -0.46890  -0.45144  -0.44918  -0.43669  -0.43333
 Alpha  occ. eigenvalues --   -0.42758  -0.42176  -0.41533  -0.33186  -0.32665
 Alpha  occ. eigenvalues --   -0.30969  -0.26533
 Alpha virt. eigenvalues --   -0.02620   0.02173   0.06189   0.08092   0.08537
 Alpha virt. eigenvalues --    0.09835   0.10759   0.11976   0.12528   0.13462
 Alpha virt. eigenvalues --    0.14043   0.15005   0.15554   0.16214   0.16999
 Alpha virt. eigenvalues --    0.17443   0.17592   0.17904   0.18009   0.19285
 Alpha virt. eigenvalues --    0.19771   0.21913   0.22443   0.23102   0.23301
 Alpha virt. eigenvalues --    0.24023   0.24554   0.25240   0.25911   0.26489
 Alpha virt. eigenvalues --    0.26799   0.27240   0.28771   0.28934   0.30261
 Alpha virt. eigenvalues --    0.31212   0.31800   0.32476   0.33476   0.34129
 Alpha virt. eigenvalues --    0.35301   0.35639   0.36767   0.38022   0.38668
 Alpha virt. eigenvalues --    0.39593   0.40684   0.41614   0.41994   0.42493
 Alpha virt. eigenvalues --    0.43977   0.44129   0.45095   0.45734   0.46412
 Alpha virt. eigenvalues --    0.47077   0.47830   0.48129   0.48338   0.48594
 Alpha virt. eigenvalues --    0.49369   0.49851   0.50846   0.51222   0.51322
 Alpha virt. eigenvalues --    0.52765   0.53073   0.53635   0.54065   0.54227
 Alpha virt. eigenvalues --    0.54366   0.55592   0.55771   0.56497   0.57891
 Alpha virt. eigenvalues --    0.58432   0.58886   0.60541   0.60604   0.61932
 Alpha virt. eigenvalues --    0.63169   0.65397   0.65884   0.66218   0.67599
 Alpha virt. eigenvalues --    0.68882   0.70385   0.71458   0.72446   0.73045
 Alpha virt. eigenvalues --    0.73428   0.73959   0.74733   0.75948   0.76896
 Alpha virt. eigenvalues --    0.78066   0.79416   0.82082   0.83472   0.84527
 Alpha virt. eigenvalues --    0.88429   0.92134   0.95418   0.99395   1.24940
 Alpha virt. eigenvalues --    1.25584   1.27100   1.28118   1.29288   1.31351
 Alpha virt. eigenvalues --    1.32256   1.32794   1.33727   1.35237   1.35611
 Alpha virt. eigenvalues --    1.36787   1.37429   1.37892   1.38955   1.39627
 Alpha virt. eigenvalues --    1.39886   1.40289   1.41172   1.41353   1.41795
 Alpha virt. eigenvalues --    1.43087   1.43863   1.44198   1.45180   1.46937
 Alpha virt. eigenvalues --    1.47748   1.48745   1.49433   1.50380   1.50931
 Alpha virt. eigenvalues --    1.52136   1.52328   1.53419   1.54306   1.57211
 Alpha virt. eigenvalues --    1.58193   1.60237   1.60531   1.61067   1.62222
 Alpha virt. eigenvalues --    1.62317   1.63390   1.64156   1.65558   1.66213
 Alpha virt. eigenvalues --    1.66804   1.67241   1.67787   1.68579   1.68929
 Alpha virt. eigenvalues --    1.69156   1.70251   1.70835   1.71870   1.72533
 Alpha virt. eigenvalues --    1.73044   1.74685   1.76037   1.76958   1.78334
 Alpha virt. eigenvalues --    1.79850   1.82980   1.84213   1.85702   1.86413
 Alpha virt. eigenvalues --    1.87165   1.87634   1.88374   1.89014   1.90463
 Alpha virt. eigenvalues --    1.91009   1.94092   1.95222   1.97876   1.99624
 Alpha virt. eigenvalues --    2.00724   2.03524   2.04222   2.06315   2.09183
 Alpha virt. eigenvalues --    2.11019   2.13005   2.14360   2.17005   2.19196
 Alpha virt. eigenvalues --    2.21016   2.21186   2.21537   2.22668   2.25924
 Alpha virt. eigenvalues --    2.26741   2.27508   2.28845   2.30545   2.31263
 Alpha virt. eigenvalues --    2.33764   2.34404   2.35492   2.36457   2.37732
 Alpha virt. eigenvalues --    2.38991   2.40497   2.41388   2.44205   2.44443
 Alpha virt. eigenvalues --    2.45325   2.47480   2.49835   2.50375   2.51835
 Alpha virt. eigenvalues --    2.52334   2.52863   2.54588   2.56431   2.58246
 Alpha virt. eigenvalues --    2.59085   2.60426   2.60615   2.60803   2.62548
 Alpha virt. eigenvalues --    2.64038   2.65475   2.66646   2.67221   2.69282
 Alpha virt. eigenvalues --    2.70423   2.71447   2.72869   2.74021   2.74165
 Alpha virt. eigenvalues --    2.76040   2.76874   2.77343   2.77781   2.79302
 Alpha virt. eigenvalues --    2.80770   2.81063   2.82471   2.83648   2.84510
 Alpha virt. eigenvalues --    2.85635   2.85833   2.87606   2.90287   2.92321
 Alpha virt. eigenvalues --    2.97231   2.99308   3.00560   3.04284   3.09869
 Alpha virt. eigenvalues --    3.11523   3.13602   3.15997   3.17028   3.17948
 Alpha virt. eigenvalues --    3.20979   3.21683   3.24603   3.25757   3.26676
 Alpha virt. eigenvalues --    3.26768   3.29179   3.33283   3.34723   3.36365
 Alpha virt. eigenvalues --    3.36895   3.38632   3.40000   3.40404   3.41709
 Alpha virt. eigenvalues --    3.42804   3.44581   3.45607   3.45980   3.47330
 Alpha virt. eigenvalues --    3.49254   3.49671   3.54362   3.57566   3.59052
 Alpha virt. eigenvalues --    3.59502   3.89594   3.99090   4.33873   4.35154
 Alpha virt. eigenvalues --   21.62790  21.77986  22.07782  22.10448  22.11298
 Alpha virt. eigenvalues --   22.13752  22.15173  22.17653  22.20826  22.25014
 Alpha virt. eigenvalues --   22.30612  31.93064  43.62382  43.64981
          Condensed to atoms (all electrons):
               1          2          3          4          5          6
     1  O    7.954693   0.000000  -0.000244   0.000017   0.015802   0.017029
     2  O    0.000000   7.970324   0.000498   0.000039  -0.190441   0.000921
     3  N   -0.000244   0.000498   6.409086   0.375752  -0.117072   0.337430
     4  H    0.000017   0.000039   0.375752   0.401863   0.015100  -0.046077
     5  C    0.015802  -0.190441  -0.117072   0.015100   6.966928  -0.055853
     6  C    0.017029   0.000921   0.337430  -0.046077  -0.055853   5.642001
     7  C   -0.000374  -0.027233   0.365456  -0.041465   0.365723  -0.093525
     8  C   -0.000187   0.696690   0.004923  -0.000583  -0.241729   0.027224
     9  C   -0.028786   0.017797   0.017972  -0.000194  -0.487043  -0.128171
    10  H    0.003469   0.000071   0.003530   0.000009  -0.024809  -0.012816
    11  H    0.016951  -0.000081  -0.001342   0.000015  -0.109653   0.024423
    12  C   -0.223666  -0.002177  -0.097731   0.015172   0.147190  -0.189186
    13  C    0.715942  -0.000021   0.000078   0.000371   0.073757   0.177648
    14  C   -0.000006  -0.016579  -0.037479  -0.005677  -0.060155   0.004674
    15  H   -0.000000   0.004406   0.003136   0.000518   0.015988   0.006402
    16  H   -0.000000   0.000350  -0.003658   0.000865  -0.007430  -0.001786
    17  H    0.000000   0.004308   0.002919   0.000750  -0.010318  -0.000615
    18  C   -0.000146  -0.106555  -0.000471   0.000021  -0.258187  -0.000098
    19  H   -0.000004   0.008324   0.000002  -0.000001   0.019234   0.000034
    20  H    0.000015   0.000819   0.000014  -0.000001  -0.000654   0.000258
    21  H    0.000108   0.004059   0.000118   0.000001   0.049828  -0.001191
    22  C   -0.109450   0.000000   0.000006   0.000108   0.003542  -0.008906
    23  H    0.004600  -0.000000  -0.000067  -0.000050  -0.000510  -0.033858
    24  H    0.001377  -0.000000  -0.000027  -0.000018  -0.000098   0.011260
    25  H    0.008248   0.000000   0.000031  -0.000002  -0.000129  -0.001326
    26  C    0.000906   0.000002  -0.030601  -0.006415  -0.000317   0.177190
    27  H   -0.000213  -0.000000   0.002999   0.000912   0.000022  -0.042873
    28  H   -0.000042  -0.000000  -0.002630   0.000438   0.000465  -0.035254
    29  H    0.000024  -0.000000   0.000142   0.000940  -0.000529  -0.049499
               7          8          9         10         11         12
     1  O   -0.000374  -0.000187  -0.028786   0.003469   0.016951  -0.223666
     2  O   -0.027233   0.696690   0.017797   0.000071  -0.000081  -0.002177
     3  N    0.365456   0.004923   0.017972   0.003530  -0.001342  -0.097731
     4  H   -0.041465  -0.000583  -0.000194   0.000009   0.000015   0.015172
     5  C    0.365723  -0.241729  -0.487043  -0.024809  -0.109653   0.147190
     6  C   -0.093525   0.027224  -0.128171  -0.012816   0.024423  -0.189186
     7  C    5.452730  -0.178848  -0.175336  -0.004780   0.018014   0.001698
     8  C   -0.178848   5.352574   0.095928  -0.004222  -0.007050  -0.036443
     9  C   -0.175336   0.095928   6.291945   0.392195   0.528688  -0.001438
    10  H   -0.004780  -0.004222   0.392195   0.549188  -0.033116  -0.025908
    11  H    0.018014  -0.007050   0.528688  -0.033116   0.498339  -0.104859
    12  C    0.001698  -0.036443  -0.001438  -0.025908  -0.104859   7.325220
    13  C    0.011821  -0.005645  -0.266217   0.000993  -0.000918  -0.397500
    14  C    0.232519  -0.040230   0.013561  -0.001396   0.000459  -0.003801
    15  H   -0.073609   0.005564  -0.000466   0.000100  -0.000004  -0.000966
    16  H   -0.017396   0.000049   0.000298  -0.000062   0.000052   0.000690
    17  H   -0.028549  -0.009724  -0.000250   0.000168  -0.000056  -0.000153
    18  C    0.004309   0.314396   0.003336  -0.008805   0.004921  -0.001152
    19  H    0.000265  -0.045477  -0.000436   0.000044   0.000434  -0.000243
    20  H    0.000768  -0.018409  -0.006925   0.000883  -0.001775  -0.003704
    21  H    0.000767  -0.077650  -0.010476   0.001420  -0.004897   0.007264
    22  C    0.000112  -0.000036   0.003632   0.001419   0.001174  -0.259455
    23  H   -0.000003  -0.000009   0.003335  -0.000121  -0.000079   0.063099
    24  H    0.000026   0.000003  -0.001930   0.000144  -0.000114  -0.010600
    25  H    0.000007   0.000003   0.000138  -0.000035  -0.000141   0.025447
    26  C    0.001590   0.000435   0.019857  -0.000611   0.000003  -0.074439
    27  H   -0.000700   0.000001  -0.001025  -0.000083   0.000005  -0.007690
    28  H   -0.000950  -0.000009  -0.000197  -0.000019   0.000043  -0.020346
    29  H    0.003770  -0.000005  -0.000475   0.000089  -0.000008   0.024538
              13         14         15         16         17         18
     1  O    0.715942  -0.000006  -0.000000  -0.000000   0.000000  -0.000146
     2  O   -0.000021  -0.016579   0.004406   0.000350   0.004308  -0.106555
     3  N    0.000078  -0.037479   0.003136  -0.003658   0.002919  -0.000471
     4  H    0.000371  -0.005677   0.000518   0.000865   0.000750   0.000021
     5  C    0.073757  -0.060155   0.015988  -0.007430  -0.010318  -0.258187
     6  C    0.177648   0.004674   0.006402  -0.001786  -0.000615  -0.000098
     7  C    0.011821   0.232519  -0.073609  -0.017396  -0.028549   0.004309
     8  C   -0.005645  -0.040230   0.005564   0.000049  -0.009724   0.314396
     9  C   -0.266217   0.013561  -0.000466   0.000298  -0.000250   0.003336
    10  H    0.000993  -0.001396   0.000100  -0.000062   0.000168  -0.008805
    11  H   -0.000918   0.000459  -0.000004   0.000052  -0.000056   0.004921
    12  C   -0.397500  -0.003801  -0.000966   0.000690  -0.000153  -0.001152
    13  C    5.449072  -0.000114  -0.000008  -0.000026   0.000001   0.000604
    14  C   -0.000114   5.110447   0.386431   0.402996   0.425198   0.001926
    15  H   -0.000008   0.386431   0.579663  -0.027701  -0.029766   0.000278
    16  H   -0.000026   0.402996  -0.027701   0.507045  -0.022296  -0.000107
    17  H    0.000001   0.425198  -0.029766  -0.022296   0.494795  -0.000146
    18  C    0.000604   0.001926   0.000278  -0.000107  -0.000146   5.335400
    19  H   -0.000016  -0.000026  -0.000005  -0.000012   0.000060   0.394410
    20  H   -0.000088  -0.000335  -0.000006   0.000004   0.000034   0.390950
    21  H    0.000588   0.000153  -0.000019   0.000003  -0.000062   0.386835
    22  C    0.290049  -0.000018   0.000003  -0.000000  -0.000000   0.000026
    23  H   -0.087800  -0.000001  -0.000000   0.000000   0.000000   0.000003
    24  H   -0.023424  -0.000001   0.000000   0.000000   0.000000  -0.000001
    25  H   -0.043743   0.000001   0.000000  -0.000000  -0.000000  -0.000001
    26  C   -0.055270   0.001511  -0.000120  -0.000162   0.000049   0.000015
    27  H   -0.005874   0.000103  -0.000015   0.000002  -0.000001  -0.000000
    28  H    0.006454  -0.000100   0.000009  -0.000016   0.000003  -0.000001
    29  H   -0.000362  -0.000277   0.000130   0.000002  -0.000002   0.000000
              19         20         21         22         23         24
     1  O   -0.000004   0.000015   0.000108  -0.109450   0.004600   0.001377
     2  O    0.008324   0.000819   0.004059   0.000000  -0.000000  -0.000000
     3  N    0.000002   0.000014   0.000118   0.000006  -0.000067  -0.000027
     4  H   -0.000001  -0.000001   0.000001   0.000108  -0.000050  -0.000018
     5  C    0.019234  -0.000654   0.049828   0.003542  -0.000510  -0.000098
     6  C    0.000034   0.000258  -0.001191  -0.008906  -0.033858   0.011260
     7  C    0.000265   0.000768   0.000767   0.000112  -0.000003   0.000026
     8  C   -0.045477  -0.018409  -0.077650  -0.000036  -0.000009   0.000003
     9  C   -0.000436  -0.006925  -0.010476   0.003632   0.003335  -0.001930
    10  H    0.000044   0.000883   0.001420   0.001419  -0.000121   0.000144
    11  H    0.000434  -0.001775  -0.004897   0.001174  -0.000079  -0.000114
    12  C   -0.000243  -0.003704   0.007264  -0.259455   0.063099  -0.010600
    13  C   -0.000016  -0.000088   0.000588   0.290049  -0.087800  -0.023424
    14  C   -0.000026  -0.000335   0.000153  -0.000018  -0.000001  -0.000001
    15  H   -0.000005  -0.000006  -0.000019   0.000003  -0.000000   0.000000
    16  H   -0.000012   0.000004   0.000003  -0.000000   0.000000   0.000000
    17  H    0.000060   0.000034  -0.000062  -0.000000   0.000000   0.000000
    18  C    0.394410   0.390950   0.386835   0.000026   0.000003  -0.000001
    19  H    0.490506  -0.007983  -0.023873  -0.000000   0.000000   0.000000
    20  H   -0.007983   0.503448  -0.026318  -0.000010  -0.000000   0.000000
    21  H   -0.023873  -0.026318   0.543435   0.000016  -0.000000  -0.000000
    22  C   -0.000000  -0.000010   0.000016   5.421371   0.398055   0.401381
    23  H    0.000000  -0.000000  -0.000000   0.398055   0.536515  -0.026652
    24  H    0.000000   0.000000  -0.000000   0.401381  -0.026652   0.490995
    25  H   -0.000000  -0.000000  -0.000000   0.383678  -0.021600  -0.007909
    26  C    0.000000   0.000005  -0.000015  -0.030446   0.016442  -0.015688
    27  H   -0.000000   0.000000  -0.000000   0.009876  -0.010379  -0.000949
    28  H    0.000000  -0.000000  -0.000000  -0.011646  -0.001360   0.001244
    29  H    0.000000  -0.000000   0.000000   0.001934   0.000727   0.000217
              25         26         27         28         29
     1  O    0.008248   0.000906  -0.000213  -0.000042   0.000024
     2  O    0.000000   0.000002  -0.000000  -0.000000  -0.000000
     3  N    0.000031  -0.030601   0.002999  -0.002630   0.000142
     4  H   -0.000002  -0.006415   0.000912   0.000438   0.000940
     5  C   -0.000129  -0.000317   0.000022   0.000465  -0.000529
     6  C   -0.001326   0.177190  -0.042873  -0.035254  -0.049499
     7  C    0.000007   0.001590  -0.000700  -0.000950   0.003770
     8  C    0.000003   0.000435   0.000001  -0.000009  -0.000005
     9  C    0.000138   0.019857  -0.001025  -0.000197  -0.000475
    10  H   -0.000035  -0.000611  -0.000083  -0.000019   0.000089
    11  H   -0.000141   0.000003   0.000005   0.000043  -0.000008
    12  C    0.025447  -0.074439  -0.007690  -0.020346   0.024538
    13  C   -0.043743  -0.055270  -0.005874   0.006454  -0.000362
    14  C    0.000001   0.001511   0.000103  -0.000100  -0.000277
    15  H    0.000000  -0.000120  -0.000015   0.000009   0.000130
    16  H   -0.000000  -0.000162   0.000002  -0.000016   0.000002
    17  H   -0.000000   0.000049  -0.000001   0.000003  -0.000002
    18  C   -0.000001   0.000015  -0.000000  -0.000001   0.000000
    19  H   -0.000000   0.000000  -0.000000   0.000000   0.000000
    20  H   -0.000000   0.000005   0.000000  -0.000000  -0.000000
    21  H   -0.000000  -0.000015  -0.000000  -0.000000   0.000000
    22  C    0.383678  -0.030446   0.009876  -0.011646   0.001934
    23  H   -0.021600   0.016442  -0.010379  -0.001360   0.000727
    24  H   -0.007909  -0.015688  -0.000949   0.001244   0.000217
    25  H    0.495758   0.001924   0.000879   0.000099  -0.000046
    26  C    0.001924   5.255807   0.423999   0.431589   0.389492
    27  H    0.000879   0.423999   0.511208  -0.025172  -0.026743
    28  H    0.000099   0.431589  -0.025172   0.475563  -0.017411
    29  H   -0.000046   0.389492  -0.026743  -0.017411   0.516383
 Mulliken charges:
               1
     1  O   -0.376064
     2  O   -0.365522
     3  N   -0.232769
     4  H    0.287590
     5  C   -0.108655
     6  C    0.274538
     7  C    0.183195
     8  C    0.168465
     9  C   -0.279315
    10  H    0.163059
    11  H    0.170571
    12  C   -0.148858
    13  C    0.159648
    14  C   -0.413784
    15  H    0.130058
    16  H    0.168297
    17  H    0.173656
    18  C   -0.461759
    19  H    0.164761
    20  H    0.169008
    21  H    0.149907
    22  C   -0.496415
    23  H    0.159712
    24  H    0.180765
    25  H    0.158719
    26  C   -0.506733
    27  H    0.171712
    28  H    0.199246
    29  H    0.156968
 Sum of Mulliken charges =  -0.00000
 Mulliken charges with hydrogens summed into heavy atoms:
               1
     1  O   -0.376064
     2  O   -0.365522
     3  N    0.054821
     5  C   -0.108655
     6  C    0.274538
     7  C    0.183195
     8  C    0.168465
     9  C    0.054315
    12  C   -0.148858
    13  C    0.159648
    14  C    0.058227
    18  C    0.021916
    22  C    0.002782
    26  C    0.021194
 Electronic spatial extent (au):  <R**2>=           3188.0211
 Charge=             -0.0000 electrons
 Dipole moment (field-independent basis, Debye):
    X=             -3.5292    Y=              7.3034    Z=             -0.3367  Tot=              8.1183
 Quadrupole moment (field-independent basis, Debye-Ang):
   XX=            -96.0502   YY=            -78.6395   ZZ=            -84.9865
   XY=            -13.3108   XZ=             -5.2554   YZ=             -1.3320
 Traceless Quadrupole moment (field-independent basis, Debye-Ang):
   XX=             -9.4914   YY=              7.9192   ZZ=              1.5722
   XY=            -13.3108   XZ=             -5.2554   YZ=             -1.3320
 Octapole moment (field-independent basis, Debye-Ang**2):
  XXX=           -100.6441  YYY=             63.5256  ZZZ=              2.4007  XYY=             36.5563
  XXY=             29.1456  XXZ=            -10.3789  XZZ=             -2.5292  YZZ=             -1.1344
  YYZ=              2.7794  XYZ=              4.6031
 Hexadecapole moment (field-independent basis, Debye-Ang**3):
 XXXX=          -3001.2452 YYYY=          -1271.0002 ZZZZ=           -155.1418 XXXY=            -47.1518
 XXXZ=            -63.3048 YYYX=            -93.0917 YYYZ=            -21.4843 ZZZX=              3.1957
 ZZZY=              5.7500 XXYY=           -685.2934 XXZZ=           -487.3065 YYZZ=           -240.9281
 XXYZ=             -4.6206 YYXZ=             -5.3146 ZZXY=              0.8221
 N-N= 9.006023856664D+02 E-N=-3.277389122315D+03  KE= 6.307065983816D+02
 No NMR shielding tensors so no spin-rotation constants.
 Leave Link  601 at Sat Jan 24 23:43:59 2026, MaxMem=  2147483648 cpu:               1.8 elap:               0.1
 (Enter /data/home/wyx/g16/l9999.exe)
 1\1\GINC-CN015\SP\RCAM-B3LYP\TZVP\C11H15N1O2\WYX\24-Jan-2026\0\\#p CAM
 -B3LYP TZVP em=gd3bj scrf=(Solvent=Water,NonEquilibrium=Read) Geom=Che
 ck Guess=Read\\Title Card Required\\0,1\O,0,2.749979,-1.558588,0.72369
 9\O,0,-3.244534,-1.642441,-1.082119\N,0,-0.703553,1.5158,0.109569\H,0,
 -1.010013,2.472961,0.047375\C,0,-1.245679,-0.758895,-0.153988\C,0,0.64
 5308,1.300378,0.270669\C,0,-1.61571,0.54106,-0.231587\C,0,-2.152033,-1
 .828898,-0.535311\C,0,0.105987,-1.111751,0.421047\H,0,0.00446,-1.44512
 9,1.461992\H,0,0.532768,-1.96106,-0.108387\C,0,1.097655,0.027474,0.352
 242\C,0,2.494822,-0.386663,0.457875\C,0,-2.938772,1.07808,-0.661136\H,
 0,-3.090105,2.089157,-0.281005\H,0,-3.009641,1.113732,-1.749021\H,0,-3
 .763939,0.459725,-0.319289\C,0,-1.746545,-3.247606,-0.246257\H,0,-2.59
 8755,-3.919135,-0.327135\H,0,-0.990521,-3.582959,-0.960812\H,0,-1.3092
 71,-3.365095,0.745734\C,0,3.65222,0.549983,0.214947\H,0,3.477522,1.242
 081,-0.604457\H,0,3.864441,1.132729,1.112726\H,0,4.526694,-0.058477,-0
 .003015\C,0,1.42418,2.579019,0.328225\H,0,2.251997,2.53045,1.025222\H,
 0,1.815846,2.840622,-0.655711\H,0,0.775194,3.393445,0.64791\\Version=E
 S64L-G16RevA.03\State=1-A\HF=-633.3297762\RMSD=2.400e-09\Dipole=0.2954
 999,3.175207,0.179987\Quadrupole=-9.8662726,10.7249314,-0.8586588,3.44
 4917,-6.2147821,0.2322229\PG=C01 [X(C11H15N1O2)]\\@


 LAW OF COMPENSATION:
      NO CALCULATION IS EVER A COMPLETE FAILURE; IT 
      CAN ALWAYS SERVE AS A BAD EXAMPLE.

                                           -- ANON
 Job cpu time:       0 days  0 hours 13 minutes 50.5 seconds.
 Elapsed time:       0 days  0 hours  0 minutes 52.8 seconds.
 File lengths (MBytes):  RWF=    340 Int=      0 D2E=      0 Chk=     67 Scr=      1
 Normal termination of Gaussian 16 at Sat Jan 24 23:44:00 2026.
