 Entering Gaussian System, Link 0=g16
 Input=DDL-LR-9.gjf
 Output=DDL-LR-9.log
 Initial command:
 /data/home/wyx/g16/l1.exe "/scr/tmp/wyx/13119/Gau-1511702.inp" -scrdir="/scr/tmp/wyx/13119/"
 Entering Link 1 = /data/home/wyx/g16/l1.exe PID=   1511703.
  
 Copyright (c) 1988,1990,1992,1993,1995,1998,2003,2009,2016,
            Gaussian, Inc.  All Rights Reserved.
  
 This is part of the Gaussian(R) 16 program.  It is based on
 the Gaussian(R) 09 system (copyright 2009, Gaussian, Inc.),
 the Gaussian(R) 03 system (copyright 2003, Gaussian, Inc.),
 the Gaussian(R) 98 system (copyright 1998, Gaussian, Inc.),
 the Gaussian(R) 94 system (copyright 1995, Gaussian, Inc.),
 the Gaussian 92(TM) system (copyright 1992, Gaussian, Inc.),
 the Gaussian 90(TM) system (copyright 1990, Gaussian, Inc.),
 the Gaussian 88(TM) system (copyright 1988, Gaussian, Inc.),
 the Gaussian 86(TM) system (copyright 1986, Carnegie Mellon
 University), and the Gaussian 82(TM) system (copyright 1983,
 Carnegie Mellon University). Gaussian is a federally registered
 trademark of Gaussian, Inc.
  
 This software contains proprietary and confidential information,
 including trade secrets, belonging to Gaussian, Inc.
  
 This software is provided under written license and may be
 used, copied, transmitted, or stored only in accord with that
 written license.
  
 The following legend is applicable only to US Government
 contracts under FAR:
  
                    RESTRICTED RIGHTS LEGEND
  
 Use, reproduction and disclosure by the US Government is
 subject to restrictions as set forth in subparagraphs (a)
 and (c) of the Commercial Computer Software - Restricted
 Rights clause in FAR 52.227-19.
  
 Gaussian, Inc.
 340 Quinnipiac St., Bldg. 40, Wallingford CT 06492
  
  
 ---------------------------------------------------------------
 Warning -- This program may not be used in any manner that
 competes with the business of Gaussian, Inc. or will provide
 assistance to any competitor of Gaussian, Inc.  The licensee
 of this program is prohibited from giving any competitor of
 Gaussian, Inc. access to this program.  By using this program,
 the user acknowledges that Gaussian, Inc. is engaged in the
 business of creating and licensing software in the field of
 computational chemistry and represents and warrants to the
 licensee that it is not a competitor of Gaussian, Inc. and that
 it will not use this program in any manner prohibited above.
 ---------------------------------------------------------------
  

 Cite this work as:
 Gaussian 16, Revision A.03,
 M. J. Frisch, G. W. Trucks, H. B. Schlegel, G. E. Scuseria, 
 M. A. Robb, J. R. Cheeseman, G. Scalmani, V. Barone, 
 G. A. Petersson, H. Nakatsuji, X. Li, M. Caricato, A. V. Marenich, 
 J. Bloino, B. G. Janesko, R. Gomperts, B. Mennucci, H. P. Hratchian, 
 J. V. Ortiz, A. F. Izmaylov, J. L. Sonnenberg, D. Williams-Young, 
 F. Ding, F. Lipparini, F. Egidi, J. Goings, B. Peng, A. Petrone, 
 T. Henderson, D. Ranasinghe, V. G. Zakrzewski, J. Gao, N. Rega, 
 G. Zheng, W. Liang, M. Hada, M. Ehara, K. Toyota, R. Fukuda, 
 J. Hasegawa, M. Ishida, T. Nakajima, Y. Honda, O. Kitao, H. Nakai, 
 T. Vreven, K. Throssell, J. A. Montgomery, Jr., J. E. Peralta, 
 F. Ogliaro, M. J. Bearpark, J. J. Heyd, E. N. Brothers, K. N. Kudin, 
 V. N. Staroverov, T. A. Keith, R. Kobayashi, J. Normand, 
 K. Raghavachari, A. P. Rendell, J. C. Burant, S. S. Iyengar, 
 J. Tomasi, M. Cossi, J. M. Millam, M. Klene, C. Adamo, R. Cammi, 
 J. W. Ochterski, R. L. Martin, K. Morokuma, O. Farkas, 
 J. B. Foresman, and D. J. Fox, Gaussian, Inc., Wallingford CT, 2016.
 
 ******************************************
 Gaussian 16:  ES64L-G16RevA.03 25-Dec-2016
                24-Jan-2026 
 ******************************************
 %nprocshared=16
 Will use up to   16 processors via shared memory.
 %mem=16GB
 %chk=DDL-LR-9.chk
 --------------------------------------------------------------------
 #p CAM-B3LYP TZVP em=gd3bj td(nstates=6,root=1) scrf=(Solvent=Water)
 --------------------------------------------------------------------
 1/38=1,172=1/1;
 2/12=2,17=6,18=5,40=1/2;
 3/5=19,7=101,11=9,25=1,30=1,70=2201,72=1,74=-40,124=41/1,2,3,8;
 4//1;
 5/5=2,38=5,53=1/2;
 8/6=1,10=1,107=1,108=6/1;
 9/8=1,41=6,42=1,70=2/14;
 6/7=2,8=2,9=2,10=2/1;
 99/5=1,9=1/99;
 Leave Link    1 at Sat Jan 24 16:13:10 2026, MaxMem=  2147483648 cpu:               0.4 elap:               0.1
 (Enter /data/home/wyx/g16/l101.exe)
 -------------------
 Title Card Required
 -------------------
 Symbolic Z-matrix:
 Charge =  0 Multiplicity = 1
 O                     2.75675  -1.55738   0.70198 
 O                    -3.30744  -1.65612  -0.94649 
 N                    -0.68276   1.52133   0.03113 
 H                    -0.98993   2.47726  -0.04239 
 C                    -1.24128  -0.76363  -0.16205 
 C                     0.65507   1.30788   0.21994 
 C                    -1.61061   0.53922  -0.25607 
 C                    -2.15304  -1.82478  -0.47336 
 C                     0.13671  -1.11877   0.34105 
 H                     0.07785  -1.51404   1.36231 
 H                     0.55552  -1.92657  -0.25799 
 C                     1.11245   0.03459   0.31704 
 C                     2.50138  -0.37656   0.46752 
 C                    -2.94127   1.0725   -0.64642 
 H                    -3.19522   1.97159  -0.07948 
 H                    -2.97324   1.33379  -1.70635 
 H                    -3.75683   0.37103  -0.48535 
 C                    -1.78708  -3.25768  -0.23246 
 H                    -2.64252  -3.88694   0.0155 
 H                    -1.32832  -3.69505  -1.12443 
 H                    -1.06595  -3.39507   0.57253 
 C                     3.66317   0.57348   0.31631 
 H                     3.54744   1.2611   -0.5173 
 H                     3.79826   1.16259   1.22447 
 H                     4.5569   -0.02783   0.16858 
 C                     1.43377   2.5861    0.28769 
 H                     2.20295   2.56242   1.05094 
 H                     1.90688   2.80816  -0.66931 
 H                     0.77039   3.41739   0.52246 
 
 ITRead=  0  0  0  0  0  0  0  0  0  0  0  0  0  0  0  0  0  0  0  0
 ITRead=  0  0  0  0  0  0  0  0  0
 MicOpt= -1 -1 -1 -1 -1 -1 -1 -1 -1 -1 -1 -1 -1 -1 -1 -1 -1 -1 -1 -1
 MicOpt= -1 -1 -1 -1 -1 -1 -1 -1 -1
 NAtoms=     29 NQM=       29 NQMF=       0 NMMI=      0 NMMIF=      0
                NMic=       0 NMicF=      0.
                    Isotopes and Nuclear Properties:
 (Nuclear quadrupole moments (NQMom) in fm**2, nuclear magnetic moments (NMagM)
  in nuclear magnetons)

  Atom         1           2           3           4           5           6           7           8           9          10
 IAtWgt=          16          16          14           1          12          12          12          12          12           1
 AtmWgt=  15.9949146  15.9949146  14.0030740   1.0078250  12.0000000  12.0000000  12.0000000  12.0000000  12.0000000   1.0078250
 NucSpn=           0           0           2           1           0           0           0           0           0           1
 AtZEff=  -0.0000000  -0.0000000  -0.0000000  -0.0000000  -0.0000000  -0.0000000  -0.0000000  -0.0000000  -0.0000000  -0.0000000
 NQMom=    0.0000000   0.0000000   2.0440000   0.0000000   0.0000000   0.0000000   0.0000000   0.0000000   0.0000000   0.0000000
 NMagM=    0.0000000   0.0000000   0.4037610   2.7928460   0.0000000   0.0000000   0.0000000   0.0000000   0.0000000   2.7928460
 AtZNuc=   8.0000000   8.0000000   7.0000000   1.0000000   6.0000000   6.0000000   6.0000000   6.0000000   6.0000000   1.0000000

  Atom        11          12          13          14          15          16          17          18          19          20
 IAtWgt=           1          12          12          12           1           1           1          12           1           1
 AtmWgt=   1.0078250  12.0000000  12.0000000  12.0000000   1.0078250   1.0078250   1.0078250  12.0000000   1.0078250   1.0078250
 NucSpn=           1           0           0           0           1           1           1           0           1           1
 AtZEff=  -0.0000000  -0.0000000  -0.0000000  -0.0000000  -0.0000000  -0.0000000  -0.0000000  -0.0000000  -0.0000000  -0.0000000
 NQMom=    0.0000000   0.0000000   0.0000000   0.0000000   0.0000000   0.0000000   0.0000000   0.0000000   0.0000000   0.0000000
 NMagM=    2.7928460   0.0000000   0.0000000   0.0000000   2.7928460   2.7928460   2.7928460   0.0000000   2.7928460   2.7928460
 AtZNuc=   1.0000000   6.0000000   6.0000000   6.0000000   1.0000000   1.0000000   1.0000000   6.0000000   1.0000000   1.0000000

  Atom        21          22          23          24          25          26          27          28          29
 IAtWgt=           1          12           1           1           1          12           1           1           1
 AtmWgt=   1.0078250  12.0000000   1.0078250   1.0078250   1.0078250  12.0000000   1.0078250   1.0078250   1.0078250
 NucSpn=           1           0           1           1           1           0           1           1           1
 AtZEff=  -0.0000000  -0.0000000  -0.0000000  -0.0000000  -0.0000000  -0.0000000  -0.0000000  -0.0000000  -0.0000000
 NQMom=    0.0000000   0.0000000   0.0000000   0.0000000   0.0000000   0.0000000   0.0000000   0.0000000   0.0000000
 NMagM=    2.7928460   0.0000000   2.7928460   2.7928460   2.7928460   0.0000000   2.7928460   2.7928460   2.7928460
 AtZNuc=   1.0000000   6.0000000   1.0000000   1.0000000   1.0000000   6.0000000   1.0000000   1.0000000   1.0000000
 Leave Link  101 at Sat Jan 24 16:13:11 2026, MaxMem=  2147483648 cpu:               0.8 elap:               0.1
 (Enter /data/home/wyx/g16/l202.exe)
                          Input orientation:                          
 ---------------------------------------------------------------------
 Center     Atomic      Atomic             Coordinates (Angstroms)
 Number     Number       Type             X           Y           Z
 ---------------------------------------------------------------------
      1          8           0        2.756746   -1.557378    0.701976
      2          8           0       -3.307440   -1.656124   -0.946491
      3          7           0       -0.682759    1.521332    0.031125
      4          1           0       -0.989931    2.477260   -0.042394
      5          6           0       -1.241283   -0.763631   -0.162046
      6          6           0        0.655073    1.307875    0.219942
      7          6           0       -1.610605    0.539222   -0.256069
      8          6           0       -2.153035   -1.824784   -0.473362
      9          6           0        0.136705   -1.118768    0.341052
     10          1           0        0.077853   -1.514042    1.362311
     11          1           0        0.555522   -1.926574   -0.257988
     12          6           0        1.112451    0.034591    0.317040
     13          6           0        2.501375   -0.376564    0.467518
     14          6           0       -2.941274    1.072502   -0.646417
     15          1           0       -3.195221    1.971588   -0.079476
     16          1           0       -2.973242    1.333794   -1.706352
     17          1           0       -3.756829    0.371028   -0.485348
     18          6           0       -1.787081   -3.257683   -0.232463
     19          1           0       -2.642520   -3.886944    0.015502
     20          1           0       -1.328318   -3.695054   -1.124430
     21          1           0       -1.065946   -3.395071    0.572529
     22          6           0        3.663169    0.573483    0.316305
     23          1           0        3.547442    1.261102   -0.517298
     24          1           0        3.798262    1.162590    1.224472
     25          1           0        4.556899   -0.027825    0.168583
     26          6           0        1.433769    2.586103    0.287690
     27          1           0        2.202954    2.562417    1.050937
     28          1           0        1.906876    2.808164   -0.669311
     29          1           0        0.770390    3.417389    0.522464
 ---------------------------------------------------------------------
                    Distance matrix (angstroms):
                    1          2          3          4          5
     1  O    0.000000
     2  O    6.285026   0.000000
     3  N    4.664621   4.235671   0.000000
     4  H    5.556076   4.824220   1.006756   0.000000
     5  C    4.166630   2.383464   2.360153   3.252825   0.000000
     6  C    3.585953   5.084030   1.367849   2.035269   2.834293
     7  C    4.938354   2.859279   1.381274   2.046188   1.357448
     8  C    5.055579   1.258947   3.689541   4.477290   1.433267
     9  C    2.680907   3.716000   2.781673   3.787843   1.509331
    10  H    2.759418   4.100117   3.400600   4.363926   2.151023
    11  H    2.429655   3.933148   3.674913   4.672115   2.142463
    12  C    2.320829   4.898006   2.348388   3.242813   2.531155
    13  C    1.230653   6.113839   3.732447   4.538010   3.814926
    14  C    6.418868   2.769390   2.400292   2.479098   2.548719
    15  H    6.963489   3.731568   2.554883   2.262826   3.362457
    16  H    6.855048   3.103013   2.881026   2.830158   3.127899
    17  H    6.896024   2.126958   3.322627   3.505445   2.778479
    18  C    4.940706   2.320844   4.912025   5.793198   2.554046
    19  H    5.920321   2.518751   5.752422   6.575522   3.427838
    20  H    4.959150   2.847072   5.381704   6.275569   3.086584
    21  H    4.243447   3.218020   4.960944   5.904928   2.737667
    22  C    2.347533   7.426654   4.457223   5.040275   5.105913
    23  H    3.171066   7.462159   4.273533   4.721475   5.211299
    24  H    2.959051   7.946649   4.651056   5.124461   5.570437
    25  H    2.421692   8.108180   5.465601   6.089933   5.854028
    26  C    4.369249   6.480645   2.383118   2.448494   4.310323
    27  H    4.171471   7.221513   3.232834   3.375965   4.939301
    28  H    4.654102   6.869919   2.975358   2.982283   4.788104
    29  H    5.359677   6.672860   2.438870   2.074039   4.690022
                    6          7          8          9         10
     6  C    0.000000
     7  C    2.439408   0.000000
     8  C    4.263765   2.435153   0.000000
     9  C    2.484345   2.481648   2.530739   0.000000
    10  H    3.098613   3.112224   2.905704   1.096665   0.000000
    11  H    3.271084   3.282112   2.719012   1.089407   1.738884
    12  C    1.356420   2.828098   3.839975   1.510925   2.135708
    13  C    2.511466   4.274415   4.964487   2.481637   2.822759
    14  C    3.706709   1.485745   3.007580   3.905216   4.454248
    15  H    3.918537   2.143330   3.956481   4.563866   4.994135
    16  H    4.108035   2.142766   3.488498   4.458553   5.180352
    17  H    4.565084   2.164979   2.719171   4.249945   4.655332
    18  C    5.197413   3.801077   1.498384   2.933399   3.010244
    19  H    6.156465   4.552971   2.175106   3.936099   3.852919
    20  H    5.547114   4.331608   2.145217   3.306233   3.594163
    21  H    5.020351   4.057325   2.177487   2.584861   2.338868
    22  C    3.097944   5.304854   6.340622   3.911556   4.278596
    23  H    2.985215   5.214863   6.482288   4.246607   4.824148
    24  H    3.303002   5.642378   6.872043   4.403638   4.585281
    25  H    4.124437   6.208057   6.975985   4.556097   4.867821
    26  C    1.498274   3.708586   5.735877   3.925722   4.450226
    27  H    2.158788   4.510523   6.367547   4.280706   4.607659
    28  H    2.146776   4.206131   6.163236   4.424379   5.114125
    29  H    2.134213   3.815638   6.084280   4.583796   5.050145
                   11         12         13         14         15
    11  H    0.000000
    12  C    2.118253   0.000000
    13  C    2.591377   1.456297   0.000000
    14  C    4.623085   4.293972   5.741348   0.000000
    15  H    5.412542   4.739749   6.185808   1.092825   0.000000
    16  H    5.017961   4.740773   6.133716   1.092134   1.761471
    17  H    4.891527   4.946403   6.374321   1.087722   1.744112
    18  C    2.694493   4.421347   5.213605   4.500447   5.417706
    19  H    3.761026   5.437754   6.243936   5.012334   5.885312
    20  H    2.725270   4.684596   5.311612   5.055662   6.057069
    21  H    2.339957   4.071028   4.674205   4.996188   5.810331
    22  C    4.029586   2.607023   1.508383   6.692871   7.010624
    23  H    4.379510   2.851251   2.178547   6.492740   6.794114
    24  H    4.717625   3.051130   2.150323   6.994976   7.159858
    25  H    4.449520   3.448211   2.106219   7.622174   8.009654
    26  C    4.629615   2.571832   3.154285   4.722769   4.684014
    27  H    4.957656   2.849159   3.011153   5.618179   5.546819
    28  H    4.940960   3.049050   3.433410   5.149525   5.203764
    29  H    5.404925   3.406248   4.170540   4.543262   4.263654
                   16         17         18         19         20
    16  H    0.000000
    17  H    1.741200   0.000000
    18  C    4.965983   4.136593   0.000000
    19  H    5.507292   4.429770   1.090519   0.000000
    20  H    5.322943   4.779029   1.094240   1.750255   0.000000
    21  H    5.585091   4.747995   1.089460   1.742930   1.743129
    22  C    6.979338   7.465923   6.684624   7.729658   6.723918
    23  H    6.628609   7.358371   6.996977   8.068574   6.978906
    24  H    7.380536   7.786492   7.270318   8.273033   7.442840
    25  H    7.878605   8.348939   7.130140   8.169937   7.053810
    26  C    4.996622   5.696179   6.692852   7.654447   7.005437
    27  H    5.992092   6.533098   7.172242   8.132958   7.507200
    28  H    5.202381   6.168552   7.115522   8.123450   7.277737
    29  H    4.829469   5.549028   7.187987   8.078258   7.596294
                   21         22         23         24         25
    21  H    0.000000
    22  C    6.178964   0.000000
    23  H    6.644623   1.086787   0.000000
    24  H    6.697598   1.090901   1.762492   0.000000
    25  H    6.566422   1.087266   1.775041   1.762816   0.000000
    26  C    6.488771   3.003612   2.621306   2.914580   4.074401
    27  H    6.812213   2.574446   2.441399   2.129469   3.609565
    28  H    6.989990   3.008289   2.260081   3.141921   3.970834
    29  H    7.055795   4.061831   3.666428   3.839914   5.131509
                   26         27         28         29
    26  C    0.000000
    27  H    1.083860   0.000000
    28  H    1.090409   1.762755   0.000000
    29  H    1.089140   1.750000   1.755871   0.000000
 Stoichiometry    C11H15NO2
 Framework group  C1[X(C11H15NO2)]
 Deg. of freedom    81
 Full point group                 C1      NOp   1
 Largest Abelian subgroup         C1      NOp   1
 Largest concise Abelian subgroup C1      NOp   1
                         Standard orientation:                         
 ---------------------------------------------------------------------
 Center     Atomic      Atomic             Coordinates (Angstroms)
 Number     Number       Type             X           Y           Z
 ---------------------------------------------------------------------
      1          8           0       -2.271910   -2.299961   -0.127887
      2          8           0        3.640340   -0.217553    0.330826
      3          7           0       -0.048706    1.800465   -0.178539
      4          1           0       -0.083310    2.806623   -0.180922
      5          6           0        1.290143   -0.139467   -0.058244
      6          6           0       -1.241231    1.134600   -0.104266
      7          6           0        1.196423    1.214742   -0.058112
      8          6           0        2.551968   -0.802797    0.090238
      9          6           0        0.054903   -0.977338   -0.282379
     10          1           0        0.068156   -1.411462   -1.289373
     11          1           0        0.052378   -1.827380    0.398965
     12          6           0       -1.239462   -0.221755   -0.091049
     13          6           0       -2.404048   -1.087164    0.033884
     14          6           0        2.306801    2.194636    0.061497
     15          1           0        2.131331    3.077437   -0.558293
     16          1           0        2.430354    2.536779    1.091269
     17          1           0        3.273331    1.797920   -0.241118
     18          6           0        2.668211   -2.289826   -0.052538
     19          1           0        3.631417   -2.612444   -0.449253
     20          1           0        2.551713   -2.781953    0.917824
     21          1           0        1.910751   -2.726921   -0.702250
     22          6           0       -3.777499   -0.574579    0.389003
     23          1           0       -3.763553    0.177290    1.173607
     24          1           0       -4.263839   -0.141283   -0.486092
     25          1           0       -4.367854   -1.427455    0.714933
     26          6           0       -2.413069    2.066178   -0.042758
     27          1           0       -3.246891    1.722977   -0.644178
     28          1           0       -2.759544    2.193157    0.983314
     29          1           0       -2.129788    3.050197   -0.413816
 ---------------------------------------------------------------------
 Rotational constants (GHZ):           1.0938272           0.4855200           0.3428428
 Leave Link  202 at Sat Jan 24 16:13:11 2026, MaxMem=  2147483648 cpu:               0.0 elap:               0.0
 (Enter /data/home/wyx/g16/l301.exe)
 Standard basis: TZVP (5D, 7F)
 Ernie: Thresh=  0.10000D-02 Tol=  0.10000D-05 Strict=F.
 There are   370 symmetry adapted cartesian basis functions of A   symmetry.
 There are   356 symmetry adapted basis functions of A   symmetry.
   356 basis functions,   610 primitive gaussians,   370 cartesian basis functions
    52 alpha electrons       52 beta electrons
       nuclear repulsion energy       899.8802834167 Hartrees.
 IExCor=20419 DFT=T Ex+Corr=CAM-B3LYP ExCW=0 ScaHFX=  1.000000
 ScaDFX=  1.000000  1.000000  1.000000  0.810000 ScalE2=  1.000000  1.000000
 IRadAn=      5 IRanWt=     -1 IRanGd=            0 ICorTp=0 IEmpDi=141
 HFx  wShort=  0.000000 wLong=  0.330000 cFull=  0.190000 cShort=  0.000000 cLong=  0.460000
 DFx  wShort=  0.000000 wLong=  0.330000 cFull=  0.190000 cShort=  0.000000 cLong=  0.460000
 NAtoms=   29 NActive=   29 NUniq=   29 SFac= 1.00D+00 NAtFMM=   60 NAOKFM=F Big=F
 Integral buffers will be    131072 words long.
 Raffenetti 1 integral format.
 Two-electron integral symmetry is turned on.
 R6Disp:  Grimme-D3(BJ) Dispersion energy=       -0.0261362486 Hartrees.
 Nuclear repulsion after empirical dispersion term =      899.8541471682 Hartrees.
 ------------------------------------------------------------------------------
 Polarizable Continuum Model (PCM)
 =================================
 Model                : PCM.
 Atomic radii         : UFF (Universal Force Field).
 Polarization charges : Total charges.
 Charge compensation  : None.
 Solution method      : On-the-fly selection.
 Cavity type          : Scaled VdW (van der Waals Surface) (Alpha=1.100).
 Cavity algorithm     : GePol (No added spheres)
                        Default sphere list used, NSphG=   29.
                        Lebedev-Laikov grids with approx.  5.0 points / Ang**2.
                        Smoothing algorithm: York/Karplus (Gamma=1.0000).
                        Polarization charges: spherical gaussians, with
                                              point-specific exponents (IZeta= 3).
                        Self-potential: point-specific (ISelfS= 7).
                        Self-field    : sphere-specific E.n sum rule (ISelfD= 2).
 Solvent              : Water, Eps=  78.355300 Eps(inf)=   1.777849
 ------------------------------------------------------------------------------
 GePol: Number of generator spheres                  =      29
 GePol: Total number of spheres                      =      29
 GePol: Number of exposed spheres                    =      29 (100.00%)
 GePol: Number of points                             =    2100
 GePol: Average weight of points                     =       0.13
 GePol: Minimum weight of points                     =   0.20D-10
 GePol: Maximum weight of points                     =    0.20577
 GePol: Number of points with low weight             =     121
 GePol: Fraction of low-weight points (<1% of avg)   =       5.76%
 GePol: Cavity surface area                          =    269.096 Ang**2
 GePol: Cavity volume                                =    286.539 Ang**3
 Leave Link  301 at Sat Jan 24 16:13:13 2026, MaxMem=  2147483648 cpu:               0.6 elap:               0.0
 (Enter /data/home/wyx/g16/l302.exe)
 NPDir=0 NMtPBC=     1 NCelOv=     1 NCel=       1 NClECP=     1 NCelD=      1
         NCelK=      1 NCelE2=     1 NClLst=     1 CellRange=     0.0.
 One-electron integrals computed using PRISM.
 One-electron integral symmetry used in STVInt
 NBasis=   356 RedAO= T EigKep=  4.22D-05  NBF=   356
 NBsUse=   356 1.00D-06 EigRej= -1.00D+00 NBFU=   356
 Precomputing XC quadrature grid using
 IXCGrd= 4 IRadAn=           5 IRanWt=          -1 IRanGd=           0 AccXCQ= 0.00D+00.
 Generated NRdTot=       0 NPtTot=           0 NUsed=           0 NTot=          32
 NSgBfM=   366   366   366   366   366 MxSgAt=    29 MxSgA2=    29.
 Leave Link  302 at Sat Jan 24 16:13:13 2026, MaxMem=  2147483648 cpu:               3.1 elap:               0.2
 (Enter /data/home/wyx/g16/l303.exe)
 DipDrv:  MaxL=1.
 Leave Link  303 at Sat Jan 24 16:13:16 2026, MaxMem=  2147483648 cpu:               0.5 elap:               0.0
 (Enter /data/home/wyx/g16/l308.exe)
 Leave Link  308 at Sat Jan 24 16:13:17 2026, MaxMem=  2147483648 cpu:               0.7 elap:               0.1
 (Enter /data/home/wyx/g16/l401.exe)
 ExpMin= 9.52D-02 ExpMax= 2.70D+04 ExpMxC= 9.22D+02 IAcc=3 IRadAn=         5 AccDes= 0.00D+00
 Harris functional with IExCor=20419 and IRadAn=       5 diagonalized for initial guess.
 HarFok:  IExCor=20419 AccDes= 0.00D+00 IRadAn=         5 IDoV= 1 UseB2=F ITyADJ=14
 ICtDFT=  3500011 ScaDFX=  1.000000  1.000000  1.000000  1.000000
 FoFCou: FMM=F IPFlag=           0 FMFlag=      100000 FMFlg1=           0
         NFxFlg=           0 DoJE=T BraDBF=F KetDBF=T FulRan=T
         wScrn=  0.000000 ICntrl=       500 IOpCl=  0 I1Cent=   200000004 NGrid=           0
         NMat0=    1 NMatS0=      1 NMatT0=    0 NMatD0=    1 NMtDS0=    0 NMtDT0=    0
 Petite list used in FoFCou.
 Harris En= -608.711292487294    
 JPrj=0 DoOrth=F DoCkMO=F.
 Leave Link  401 at Sat Jan 24 16:13:18 2026, MaxMem=  2147483648 cpu:              11.7 elap:               0.8
 (Enter /data/home/wyx/g16/l502.exe)
 Integral symmetry usage will be decided dynamically.
 Closed shell SCF:
 Using DIIS extrapolation, IDIIS=  1040.
 NGot=  2147483648 LenX=  2147200095 LenY=  2147062754
 Requested convergence on RMS density matrix=1.00D-08 within 128 cycles.
 Requested convergence on MAX density matrix=1.00D-06.
 Requested convergence on             energy=1.00D-06.
 No special actions if energy rises.
 Fock matrices will be formed incrementally for  20 cycles.

 Cycle   1  Pass 1  IDiag  1:
 FoFJK:  IHMeth= 1 ICntrl=       0 DoSepK=T KAlg= 0 I1Cent=           0 FoldK=F
 IRaf=         1 NMat=       1 IRICut=       1 DoRegI=T DoRafI=F ISym2E= 0 IDoP0=0 IntGTp=1.
 FoFCou: FMM=F IPFlag=           0 FMFlag=      100000 FMFlg1=           0
         NFxFlg=           0 DoJE=T BraDBF=F KetDBF=F FulRan=T
         wScrn=  0.000000 ICntrl=       500 IOpCl=  0 I1Cent=           0 NGrid=           0
         NMat0=    1 NMatS0=      1 NMatT0=    0 NMatD0=    1 NMtDS0=    0 NMtDT0=    0
 Symmetry not used in FoFCou.
 Inv3:  Mode=1 IEnd=    13230000.
 Iteration    1 A*A^-1 deviation from unit magnitude is 3.11D-15 for    725.
 Iteration    1 A*A^-1 deviation from orthogonality  is 1.71D-15 for   1393    863.
 Iteration    1 A^-1*A deviation from unit magnitude is 2.89D-15 for    912.
 Iteration    1 A^-1*A deviation from orthogonality  is 2.98D-15 for   1506   1268.
 E= -633.129454396869    
 DIIS: error= 4.21D-02 at cycle   1 NSaved=   1.
 NSaved= 1 IEnMin= 1 EnMin= -633.129454396869     IErMin= 1 ErrMin= 4.21D-02
 ErrMax= 4.21D-02  0.00D+00 EMaxC= 1.00D-01 BMatC= 1.09D+00 BMatP= 1.09D+00
 IDIUse=3 WtCom= 5.79D-01 WtEn= 4.21D-01
 Coeff-Com:  0.100D+01
 Coeff-En:   0.100D+01
 Coeff:      0.100D+01
 Gap=     0.227 Goal=   None    Shift=    0.000
 GapD=    0.227 DampG=1.000 DampE=0.500 DampFc=0.5000 IDamp=-1.
 Damping current iteration by 5.00D-01
 RMSDP=4.08D-03 MaxDP=1.60D-01              OVMax= 1.41D-01

 Cycle   2  Pass 1  IDiag  1:
 RMSU=  1.76D-03    CP:  9.27D-01
 E= -633.225052600816     Delta-E=       -0.095598203947 Rises=F Damp=T
 DIIS: error= 1.93D-02 at cycle   2 NSaved=   2.
 NSaved= 2 IEnMin= 2 EnMin= -633.225052600816     IErMin= 2 ErrMin= 1.93D-02
 ErrMax= 1.93D-02  0.00D+00 EMaxC= 1.00D-01 BMatC= 2.23D-01 BMatP= 1.09D+00
 IDIUse=3 WtCom= 8.07D-01 WtEn= 1.93D-01
 Coeff-Com: -0.596D+00 0.160D+01
 Coeff-En:   0.000D+00 0.100D+01
 Coeff:     -0.481D+00 0.148D+01
 Gap=     0.240 Goal=   None    Shift=    0.000
 RMSDP=1.46D-03 MaxDP=4.47D-02 DE=-9.56D-02 OVMax= 1.32D-01

 Cycle   3  Pass 1  IDiag  1:
 RMSU=  1.37D-03    CP:  9.06D-01  1.23D+00
 E= -633.275123357630     Delta-E=       -0.050070756814 Rises=F Damp=F
 DIIS: error= 1.13D-02 at cycle   3 NSaved=   3.
 NSaved= 3 IEnMin= 3 EnMin= -633.275123357630     IErMin= 3 ErrMin= 1.13D-02
 ErrMax= 1.13D-02  0.00D+00 EMaxC= 1.00D-01 BMatC= 6.21D-02 BMatP= 2.23D-01
 IDIUse=3 WtCom= 8.87D-01 WtEn= 1.13D-01
 Coeff-Com: -0.363D+00 0.794D+00 0.568D+00
 Coeff-En:   0.000D+00 0.000D+00 0.100D+01
 Coeff:     -0.322D+00 0.704D+00 0.617D+00
 Gap=     0.237 Goal=   None    Shift=    0.000
 RMSDP=1.43D-03 MaxDP=7.19D-02 DE=-5.01D-02 OVMax= 7.33D-02

 Cycle   4  Pass 1  IDiag  1:
 RMSU=  5.10D-04    CP:  8.53D-01  1.74D+00  5.17D-01
 E= -633.321615886768     Delta-E=       -0.046492529138 Rises=F Damp=F
 DIIS: error= 3.90D-03 at cycle   4 NSaved=   4.
 NSaved= 4 IEnMin= 4 EnMin= -633.321615886768     IErMin= 4 ErrMin= 3.90D-03
 ErrMax= 3.90D-03  0.00D+00 EMaxC= 1.00D-01 BMatC= 6.43D-03 BMatP= 6.21D-02
 IDIUse=3 WtCom= 9.61D-01 WtEn= 3.90D-02
 Coeff-Com: -0.169D+00 0.365D+00 0.358D+00 0.445D+00
 Coeff-En:   0.000D+00 0.000D+00 0.552D-02 0.994D+00
 Coeff:     -0.162D+00 0.351D+00 0.345D+00 0.467D+00
 Gap=     0.233 Goal=   None    Shift=    0.000
 RMSDP=3.53D-04 MaxDP=2.07D-02 DE=-4.65D-02 OVMax= 1.41D-02

 Cycle   5  Pass 1  IDiag  1:
 RMSU=  9.75D-05    CP:  8.65D-01  1.67D+00  6.53D-01  6.48D-01
 E= -633.326462782598     Delta-E=       -0.004846895830 Rises=F Damp=F
 DIIS: error= 4.26D-04 at cycle   5 NSaved=   5.
 NSaved= 5 IEnMin= 5 EnMin= -633.326462782598     IErMin= 5 ErrMin= 4.26D-04
 ErrMax= 4.26D-04  0.00D+00 EMaxC= 1.00D-01 BMatC= 7.44D-05 BMatP= 6.43D-03
 IDIUse=3 WtCom= 9.96D-01 WtEn= 4.26D-03
 Coeff-Com: -0.342D-01 0.732D-01 0.832D-01 0.160D+00 0.718D+00
 Coeff-En:   0.000D+00 0.000D+00 0.000D+00 0.000D+00 0.100D+01
 Coeff:     -0.341D-01 0.729D-01 0.828D-01 0.159D+00 0.719D+00
 Gap=     0.233 Goal=   None    Shift=    0.000
 RMSDP=1.23D-04 MaxDP=6.44D-03 DE=-4.85D-03 OVMax= 2.11D-03

 Cycle   6  Pass 1  IDiag  1:
 RMSU=  4.91D-05    CP:  8.60D-01  1.70D+00  6.53D-01  7.77D-01  1.08D+00
 E= -633.326507854558     Delta-E=       -0.000045071960 Rises=F Damp=F
 DIIS: error= 4.03D-04 at cycle   6 NSaved=   6.
 NSaved= 6 IEnMin= 6 EnMin= -633.326507854558     IErMin= 6 ErrMin= 4.03D-04
 ErrMax= 4.03D-04  0.00D+00 EMaxC= 1.00D-01 BMatC= 2.43D-05 BMatP= 7.44D-05
 IDIUse=3 WtCom= 9.96D-01 WtEn= 4.03D-03
 Coeff-Com:  0.176D-01-0.384D-01-0.303D-01-0.996D-02 0.419D+00 0.642D+00
 Coeff-En:   0.000D+00 0.000D+00 0.000D+00 0.000D+00 0.140D+00 0.860D+00
 Coeff:      0.175D-01-0.382D-01-0.302D-01-0.992D-02 0.418D+00 0.643D+00
 Gap=     0.233 Goal=   None    Shift=    0.000
 RMSDP=2.75D-05 MaxDP=1.45D-03 DE=-4.51D-05 OVMax= 2.96D-03

 Cycle   7  Pass 1  IDiag  1:
 RMSU=  1.89D-05    CP:  8.60D-01  1.70D+00  6.57D-01  7.75D-01  1.22D+00
                    CP:  7.77D-01
 E= -633.326531099590     Delta-E=       -0.000023245032 Rises=F Damp=F
 DIIS: error= 3.44D-05 at cycle   7 NSaved=   7.
 NSaved= 7 IEnMin= 7 EnMin= -633.326531099590     IErMin= 7 ErrMin= 3.44D-05
 ErrMax= 3.44D-05  0.00D+00 EMaxC= 1.00D-01 BMatC= 8.14D-07 BMatP= 2.43D-05
 IDIUse=1 WtCom= 1.00D+00 WtEn= 0.00D+00
 Coeff-Com:  0.391D-02-0.841D-02-0.748D-02-0.109D-01-0.732D-02 0.137D+00
 Coeff-Com:  0.893D+00
 Coeff:      0.391D-02-0.841D-02-0.748D-02-0.109D-01-0.732D-02 0.137D+00
 Coeff:      0.893D+00
 Gap=     0.233 Goal=   None    Shift=    0.000
 RMSDP=1.64D-05 MaxDP=7.80D-04 DE=-2.32D-05 OVMax= 6.68D-04

 Cycle   8  Pass 1  IDiag  1:
 RMSU=  5.58D-06    CP:  8.60D-01  1.70D+00  6.58D-01  7.92D-01  1.28D+00
                    CP:  9.09D-01  1.06D+00
 E= -633.326532389232     Delta-E=       -0.000001289642 Rises=F Damp=F
 DIIS: error= 2.07D-05 at cycle   8 NSaved=   8.
 NSaved= 8 IEnMin= 8 EnMin= -633.326532389232     IErMin= 8 ErrMin= 2.07D-05
 ErrMax= 2.07D-05  0.00D+00 EMaxC= 1.00D-01 BMatC= 1.29D-07 BMatP= 8.14D-07
 IDIUse=1 WtCom= 1.00D+00 WtEn= 0.00D+00
 Coeff-Com: -0.426D-03 0.990D-03 0.434D-03-0.421D-02-0.630D-01-0.148D-01
 Coeff-Com:  0.337D+00 0.744D+00
 Coeff:     -0.426D-03 0.990D-03 0.434D-03-0.421D-02-0.630D-01-0.148D-01
 Coeff:      0.337D+00 0.744D+00
 Gap=     0.233 Goal=   None    Shift=    0.000
 RMSDP=5.30D-06 MaxDP=3.20D-04 DE=-1.29D-06 OVMax= 3.67D-04

 Cycle   9  Pass 1  IDiag  1:
 RMSU=  2.03D-06    CP:  8.60D-01  1.70D+00  6.58D-01  7.96D-01  1.30D+00
                    CP:  9.39D-01  1.18D+00  1.09D+00
 E= -633.326532587878     Delta-E=       -0.000000198646 Rises=F Damp=F
 DIIS: error= 7.35D-06 at cycle   9 NSaved=   9.
 NSaved= 9 IEnMin= 9 EnMin= -633.326532587878     IErMin= 9 ErrMin= 7.35D-06
 ErrMax= 7.35D-06  0.00D+00 EMaxC= 1.00D-01 BMatC= 2.49D-08 BMatP= 1.29D-07
 IDIUse=1 WtCom= 1.00D+00 WtEn= 0.00D+00
 Coeff-Com: -0.862D-03 0.188D-02 0.156D-02-0.725D-05-0.269D-01-0.219D-01
 Coeff-Com: -0.381D-02 0.330D+00 0.720D+00
 Coeff:     -0.862D-03 0.188D-02 0.156D-02-0.725D-05-0.269D-01-0.219D-01
 Coeff:     -0.381D-02 0.330D+00 0.720D+00
 Gap=     0.233 Goal=   None    Shift=    0.000
 RMSDP=1.93D-06 MaxDP=9.61D-05 DE=-1.99D-07 OVMax= 1.26D-04

 Cycle  10  Pass 1  IDiag  1:
 RMSU=  8.36D-07    CP:  8.60D-01  1.70D+00  6.58D-01  7.98D-01  1.30D+00
                    CP:  9.56D-01  1.21D+00  1.26D+00  8.67D-01
 E= -633.326532617315     Delta-E=       -0.000000029436 Rises=F Damp=F
 DIIS: error= 3.17D-06 at cycle  10 NSaved=  10.
 NSaved=10 IEnMin=10 EnMin= -633.326532617315     IErMin=10 ErrMin= 3.17D-06
 ErrMax= 3.17D-06  0.00D+00 EMaxC= 1.00D-01 BMatC= 4.37D-09 BMatP= 2.49D-08
 IDIUse=1 WtCom= 1.00D+00 WtEn= 0.00D+00
 Coeff-Com: -0.432D-03 0.935D-03 0.844D-03 0.543D-03-0.697D-02-0.901D-02
 Coeff-Com: -0.493D-01 0.840D-01 0.374D+00 0.605D+00
 Coeff:     -0.432D-03 0.935D-03 0.844D-03 0.543D-03-0.697D-02-0.901D-02
 Coeff:     -0.493D-01 0.840D-01 0.374D+00 0.605D+00
 Gap=     0.233 Goal=   None    Shift=    0.000
 RMSDP=7.15D-07 MaxDP=4.05D-05 DE=-2.94D-08 OVMax= 3.33D-05

 Cycle  11  Pass 1  IDiag  1:
 RMSU=  2.55D-07    CP:  8.60D-01  1.71D+00  6.58D-01  7.98D-01  1.30D+00
                    CP:  9.60D-01  1.21D+00  1.28D+00  1.04D+00  9.59D-01
 E= -633.326532621762     Delta-E=       -0.000000004448 Rises=F Damp=F
 DIIS: error= 9.68D-07 at cycle  11 NSaved=  11.
 NSaved=11 IEnMin=11 EnMin= -633.326532621762     IErMin=11 ErrMin= 9.68D-07
 ErrMax= 9.68D-07  0.00D+00 EMaxC= 1.00D-01 BMatC= 3.57D-10 BMatP= 4.37D-09
 IDIUse=1 WtCom= 1.00D+00 WtEn= 0.00D+00
 Coeff-Com:  0.249D-04-0.572D-04-0.208D-04 0.123D-03 0.229D-02 0.178D-02
 Coeff-Com: -0.174D-01-0.276D-01-0.477D-02 0.220D+00 0.826D+00
 Coeff:      0.249D-04-0.572D-04-0.208D-04 0.123D-03 0.229D-02 0.178D-02
 Coeff:     -0.174D-01-0.276D-01-0.477D-02 0.220D+00 0.826D+00
 Gap=     0.233 Goal=   None    Shift=    0.000
 RMSDP=2.68D-07 MaxDP=1.75D-05 DE=-4.45D-09 OVMax= 1.75D-05

 Cycle  12  Pass 1  IDiag  1:
 RMSU=  1.20D-07    CP:  8.60D-01  1.71D+00  6.57D-01  7.99D-01  1.30D+00
                    CP:  9.61D-01  1.21D+00  1.31D+00  1.03D+00  1.07D+00
                    CP:  1.03D+00
 E= -633.326532622306     Delta-E=       -0.000000000544 Rises=F Damp=F
 DIIS: error= 2.79D-07 at cycle  12 NSaved=  12.
 NSaved=12 IEnMin=12 EnMin= -633.326532622306     IErMin=12 ErrMin= 2.79D-07
 ErrMax= 2.79D-07  0.00D+00 EMaxC= 1.00D-01 BMatC= 3.43D-11 BMatP= 3.57D-10
 IDIUse=1 WtCom= 1.00D+00 WtEn= 0.00D+00
 Coeff-Com:  0.306D-04-0.675D-04-0.487D-04 0.258D-04 0.128D-02 0.120D-02
 Coeff-Com: -0.354D-02-0.145D-01-0.300D-01 0.356D-01 0.310D+00 0.700D+00
 Coeff:      0.306D-04-0.675D-04-0.487D-04 0.258D-04 0.128D-02 0.120D-02
 Coeff:     -0.354D-02-0.145D-01-0.300D-01 0.356D-01 0.310D+00 0.700D+00
 Gap=     0.233 Goal=   None    Shift=    0.000
 RMSDP=5.69D-08 MaxDP=2.02D-06 DE=-5.44D-10 OVMax= 3.74D-06

 Cycle  13  Pass 1  IDiag  1:
 RMSU=  2.66D-08    CP:  8.60D-01  1.71D+00  6.57D-01  7.99D-01  1.30D+00
                    CP:  9.62D-01  1.21D+00  1.31D+00  1.04D+00  1.09D+00
                    CP:  1.10D+00  1.10D+00
 E= -633.326532622359     Delta-E=       -0.000000000053 Rises=F Damp=F
 DIIS: error= 1.52D-07 at cycle  13 NSaved=  13.
 NSaved=13 IEnMin=13 EnMin= -633.326532622359     IErMin=13 ErrMin= 1.52D-07
 ErrMax= 1.52D-07  0.00D+00 EMaxC= 1.00D-01 BMatC= 4.04D-12 BMatP= 3.43D-11
 IDIUse=1 WtCom= 1.00D+00 WtEn= 0.00D+00
 Coeff-Com:  0.479D-05-0.997D-05-0.120D-04-0.196D-04-0.994D-04-0.792D-05
 Coeff-Com:  0.237D-02 0.225D-02-0.889D-02-0.324D-01-0.711D-01 0.172D+00
 Coeff-Com:  0.936D+00
 Coeff:      0.479D-05-0.997D-05-0.120D-04-0.196D-04-0.994D-04-0.792D-05
 Coeff:      0.237D-02 0.225D-02-0.889D-02-0.324D-01-0.711D-01 0.172D+00
 Coeff:      0.936D+00
 Gap=     0.233 Goal=   None    Shift=    0.000
 RMSDP=3.70D-08 MaxDP=1.27D-06 DE=-5.32D-11 OVMax= 3.01D-06

 Cycle  14  Pass 1  IDiag  1:
 RMSU=  1.65D-08    CP:  8.60D-01  1.71D+00  6.57D-01  7.99D-01  1.30D+00
                    CP:  9.62D-01  1.21D+00  1.31D+00  1.03D+00  1.11D+00
                    CP:  1.14D+00  1.28D+00  1.27D+00
 E= -633.326532622384     Delta-E=       -0.000000000025 Rises=F Damp=F
 DIIS: error= 6.98D-08 at cycle  14 NSaved=  14.
 NSaved=14 IEnMin=14 EnMin= -633.326532622384     IErMin=14 ErrMin= 6.98D-08
 ErrMax= 6.98D-08  0.00D+00 EMaxC= 1.00D-01 BMatC= 3.96D-13 BMatP= 4.04D-12
 IDIUse=1 WtCom= 1.00D+00 WtEn= 0.00D+00
 Coeff-Com: -0.265D-05 0.594D-05 0.404D-05-0.398D-05-0.138D-03-0.114D-03
 Coeff-Com:  0.532D-03 0.183D-02 0.250D-02-0.463D-02-0.392D-01-0.739D-01
 Coeff-Com:  0.151D-01 0.110D+01
 Coeff:     -0.265D-05 0.594D-05 0.404D-05-0.398D-05-0.138D-03-0.114D-03
 Coeff:      0.532D-03 0.183D-02 0.250D-02-0.463D-02-0.392D-01-0.739D-01
 Coeff:      0.151D-01 0.110D+01
 Gap=     0.233 Goal=   None    Shift=    0.000
 RMSDP=1.54D-08 MaxDP=6.52D-07 DE=-2.51D-11 OVMax= 1.58D-06

 Cycle  15  Pass 1  IDiag  1:
 RMSU=  5.33D-09    CP:  8.60D-01  1.71D+00  6.57D-01  7.99D-01  1.30D+00
                    CP:  9.62D-01  1.21D+00  1.31D+00  1.03D+00  1.12D+00
                    CP:  1.15D+00  1.35D+00  1.50D+00  1.36D+00
 E= -633.326532622386     Delta-E=       -0.000000000002 Rises=F Damp=F
 DIIS: error= 1.84D-08 at cycle  15 NSaved=  15.
 NSaved=15 IEnMin=15 EnMin= -633.326532622386     IErMin=15 ErrMin= 1.84D-08
 ErrMax= 1.84D-08  0.00D+00 EMaxC= 1.00D-01 BMatC= 1.11D-13 BMatP= 3.96D-13
 IDIUse=1 WtCom= 1.00D+00 WtEn= 0.00D+00
 Coeff-Com: -0.164D-05 0.352D-05 0.318D-05 0.145D-05-0.331D-04-0.476D-04
 Coeff-Com: -0.199D-03 0.175D-03 0.212D-02 0.381D-02-0.317D-02-0.483D-01
 Coeff-Com: -0.148D+00 0.369D+00 0.825D+00
 Coeff:     -0.164D-05 0.352D-05 0.318D-05 0.145D-05-0.331D-04-0.476D-04
 Coeff:     -0.199D-03 0.175D-03 0.212D-02 0.381D-02-0.317D-02-0.483D-01
 Coeff:     -0.148D+00 0.369D+00 0.825D+00
 Gap=     0.233 Goal=   None    Shift=    0.000
 RMSDP=5.91D-09 MaxDP=1.93D-07 DE=-1.59D-12 OVMax= 5.82D-07

 Error on total polarization charges =  0.01552
 SCF Done:  E(RCAM-B3LYP) =  -633.326532622     A.U. after   15 cycles
            NFock= 15  Conv=0.59D-08     -V/T= 2.0042
 KE= 6.306768850425D+02 PE=-3.275723806775D+03 EE= 1.111866241942D+03
 Leave Link  502 at Sat Jan 24 16:14:17 2026, MaxMem=  2147483648 cpu:             936.9 elap:              59.0
 (Enter /data/home/wyx/g16/l801.exe)
 DoSCS=F DFT=T ScalE2(SS,OS)=  1.000000  1.000000
 ExpMin= 9.52D-02 ExpMax= 2.70D+04 ExpMxC= 9.22D+02 IAcc=3 IRadAn=         5 AccDes= 0.00D+00
 HarFok:  IExCor=  205 AccDes= 0.00D+00 IRadAn=         5 IDoV=-2 UseB2=F ITyADJ=14
 ICtDFT= 12500011 ScaDFX=  1.000000  1.000000  1.000000  1.000000
 Largest valence mixing into a core orbital is  5.66D-05
 Largest core mixing into a valence orbital is  1.16D-05
 Range of M.O.s used for correlation:    15   356
 NBasis=   356 NAE=    52 NBE=    52 NFC=    14 NFV=     0
 NROrb=    342 NOA=    38 NOB=    38 NVA=   304 NVB=   304

 **** Warning!!: The largest alpha MO coefficient is  0.35617546D+02

 Leave Link  801 at Sat Jan 24 16:14:17 2026, MaxMem=  2147483648 cpu:               1.0 elap:               0.1
 (Enter /data/home/wyx/g16/l914.exe)
 RHF ground state
 Two-electron integrals replicated using symmetry.
 MDV=  2147483648 DFT=T DoStab=F Mixed=T DoRPA=T DoScal=F NonHer=T
 NEqPCM:  Using non-equilibrium solvation (IEInf=1, Eps=  78.3553, EpsInf=   1.7778)
 Inv3:  Mode=1 IEnd=    13230000.
 Iteration    1 A*A^-1 deviation from unit magnitude is 2.89D-15 for    754.
 Iteration    1 A*A^-1 deviation from orthogonality  is 1.63D-15 for   1648   1320.
 Iteration    1 A^-1*A deviation from unit magnitude is 3.11D-15 for   1456.
 Iteration    1 A^-1*A deviation from orthogonality  is 1.46D-15 for   1656   1335.
 Making orbital integer symmetry assigments:
 Orbital symmetries:
       Occupied  (A) (A) (A) (A) (A) (A) (A) (A) (A) (A) (A) (A)
                 (A) (A) (A) (A) (A) (A) (A) (A) (A) (A) (A) (A)
                 (A) (A) (A) (A) (A) (A) (A) (A) (A) (A) (A) (A)
                 (A) (A) (A) (A) (A) (A) (A) (A) (A) (A) (A) (A)
                 (A) (A) (A) (A)
       Virtual   (A) (A) (A) (A) (A) (A) (A) (A) (A) (A) (A) (A)
                 (A) (A) (A) (A) (A) (A) (A) (A) (A) (A) (A) (A)
                 (A) (A) (A) (A) (A) (A) (A) (A) (A) (A) (A) (A)
                 (A) (A) (A) (A) (A) (A) (A) (A) (A) (A) (A) (A)
                 (A) (A) (A) (A) (A) (A) (A) (A) (A) (A) (A) (A)
                 (A) (A) (A) (A) (A) (A) (A) (A) (A) (A) (A) (A)
                 (A) (A) (A) (A) (A) (A) (A) (A) (A) (A) (A) (A)
                 (A) (A) (A) (A) (A) (A) (A) (A) (A) (A) (A) (A)
                 (A) (A) (A) (A) (A) (A) (A) (A) (A) (A) (A) (A)
                 (A) (A) (A) (A) (A) (A) (A) (A) (A) (A) (A) (A)
                 (A) (A) (A) (A) (A) (A) (A) (A) (A) (A) (A) (A)
                 (A) (A) (A) (A) (A) (A) (A) (A) (A) (A) (A) (A)
                 (A) (A) (A) (A) (A) (A) (A) (A) (A) (A) (A) (A)
                 (A) (A) (A) (A) (A) (A) (A) (A) (A) (A) (A) (A)
                 (A) (A) (A) (A) (A) (A) (A) (A) (A) (A) (A) (A)
                 (A) (A) (A) (A) (A) (A) (A) (A) (A) (A) (A) (A)
                 (A) (A) (A) (A) (A) (A) (A) (A) (A) (A) (A) (A)
                 (A) (A) (A) (A) (A) (A) (A) (A) (A) (A) (A) (A)
                 (A) (A) (A) (A) (A) (A) (A) (A) (A) (A) (A) (A)
                 (A) (A) (A) (A) (A) (A) (A) (A) (A) (A) (A) (A)
                 (A) (A) (A) (A) (A) (A) (A) (A) (A) (A) (A) (A)
                 (A) (A) (A) (A) (A) (A) (A) (A) (A) (A) (A) (A)
                 (A) (A) (A) (A) (A) (A) (A) (A) (A) (A) (A) (A)
                 (A) (A) (A) (A) (A) (A) (A) (A) (A) (A) (A) (A)
                 (A) (A) (A) (A) (A) (A) (A) (A) (A) (A) (A) (A)
                 (A) (A) (A) (A)
    24 initial guesses have been made.
 Convergence on wavefunction:    0.001000000000000
 Davidson Disk Diagonalization:  ConvIn= 1.00D-03 SkipCon=T Conv= 1.00D-03.
 Max sub-space:  2000 roots to seek:    24 dimension of matrix:        23104
 Iteration     1 Dimension    24 NMult     0 NNew     24
 CISAX will form    24 AO SS matrices at one time.
 NMat=    24 NSing=    24 JSym2X= 0.
 FoFJK:  IHMeth= 1 ICntrl=       0 DoSepK=T KAlg= 0 I1Cent=           0 FoldK=F
 IRaf=         1 NMat=      48 IRICut=       1 DoRegI=T DoRafI=F ISym2E= 0 IDoP0=3 IntGTp=3.
 New state      3 was old state      4
 New state      4 was old state      3
 New state      5 was old state      6
 New state      6 was old state      5
 Excitation Energies [eV] at current iteration:
 Root      1 :     3.843073084049996
 Root      2 :     4.035560821811099
 Root      3 :     4.519834408667456
 Root      4 :     5.502672808902313
 Root      5 :     6.299558107880657
 Root      6 :     6.470931530575403
 Root      7 :     6.744339234179244
 Root      8 :     6.787505082519677
 Root      9 :     6.928870627620705
 Root     10 :     7.204669195988850
 Root     11 :     7.261595566633479
 Root     12 :     7.431824733785932
 Root     13 :     7.556755343710265
 Root     14 :     7.686021146629084
 Root     15 :     7.766195925204587
 Root     16 :     7.802930088470189
 Root     17 :     8.064331904589025
 Root     18 :     8.224158011562492
 Root     19 :     8.311356672410868
 Root     20 :     8.395788330456220
 Root     21 :     8.605594906571584
 Root     22 :     8.833692609826707
 Root     23 :     8.887441480390299
 Root     24 :     9.227775162570751
 Iteration     2 Dimension    36 NMult    24 NNew     12
 CISAX will form    12 AO SS matrices at one time.
 NMat=    12 NSing=    12 JSym2X= 0.
 Root      1 not converged, maximum delta is    0.148457550452167
 Root      2 not converged, maximum delta is    0.141644107895896
 Root      3 not converged, maximum delta is    0.093160193225748
 Root      4 not converged, maximum delta is    0.292139882987608
 New state      5 was old state      6
 Root      5 not converged, maximum delta is    0.356498967691982
 New state      6 was old state      5
 Root      6 not converged, maximum delta is    0.232439978290700
 Excitation Energies [eV] at current iteration:
 Root      1 :     3.417467588086189   Change is   -0.425605495963807
 Root      2 :     3.795710687972524   Change is   -0.239850133838576
 Root      3 :     4.265581683262635   Change is   -0.254252725404821
 Root      4 :     5.160572662131332   Change is   -0.342100146770980
 Root      5 :     5.589433795108731   Change is   -0.881497735466673
 Root      6 :     6.174491357036425   Change is   -0.125066750844232
 Iteration     3 Dimension    48 NMult    36 NNew     12
 CISAX will form    12 AO SS matrices at one time.
 NMat=    12 NSing=    12 JSym2X= 0.
 Root      1 not converged, maximum delta is    0.009514239356281
 Root      2 not converged, maximum delta is    0.010461102838041
 Root      3 not converged, maximum delta is    0.016215559361606
 Root      4 not converged, maximum delta is    0.024568053196124
 Root      5 not converged, maximum delta is    0.024724687084847
 Root      6 not converged, maximum delta is    0.017448668190176
 Excitation Energies [eV] at current iteration:
 Root      1 :     3.399875453298961   Change is   -0.017592134787228
 Root      2 :     3.784420557487822   Change is   -0.011290130484702
 Root      3 :     4.252155771251808   Change is   -0.013425912010826
 Root      4 :     5.137551461866004   Change is   -0.023021200265328
 Root      5 :     5.563202923815381   Change is   -0.026230871293350
 Root      6 :     6.162868193683190   Change is   -0.011623163353235
 Iteration     4 Dimension    60 NMult    48 NNew     12
 CISAX will form    12 AO SS matrices at one time.
 NMat=    12 NSing=    12 JSym2X= 0.
 Root      1 not converged, maximum delta is    0.001957586545984
 Root      2 not converged, maximum delta is    0.001716751091671
 Root      3 not converged, maximum delta is    0.002244474051744
 Root      4 not converged, maximum delta is    0.002805721204447
 Root      5 not converged, maximum delta is    0.003811002757270
 Root      6 not converged, maximum delta is    0.003442943490166
 Excitation Energies [eV] at current iteration:
 Root      1 :     3.398448341795023   Change is   -0.001427111503938
 Root      2 :     3.783579602801833   Change is   -0.000840954685989
 Root      3 :     4.251484216070955   Change is   -0.000671555180853
 Root      4 :     5.135200201630466   Change is   -0.002351260235538
 Root      5 :     5.560147350542344   Change is   -0.003055573273036
 Root      6 :     6.161970284180599   Change is   -0.000897909502591
 Iteration     5 Dimension    72 NMult    60 NNew     12
 CISAX will form    12 AO SS matrices at one time.
 NMat=    12 NSing=    12 JSym2X= 0.
 Root      1 has converged.
 Root      2 has converged.
 Root      3 has converged.
 Root      4 has converged.
 Root      5 not converged, maximum delta is    0.001022981386861
 Root      6 has converged.
 Excitation Energies [eV] at current iteration:
 Root      1 :     3.398362583379908   Change is   -0.000085758415115
 Root      2 :     3.783541763147836   Change is   -0.000037839653997
 Root      3 :     4.251448326478479   Change is   -0.000035889592477
 Root      4 :     5.135029278576152   Change is   -0.000170923054315
 Root      5 :     5.559869478974256   Change is   -0.000277871568089
 Root      6 :     6.161902390505479   Change is   -0.000067893675120
 Iteration     6 Dimension    74 NMult    72 NNew      2
 CISAX will form     2 AO SS matrices at one time.
 NMat=     2 NSing=     2 JSym2X= 0.
 Root      1 has converged.
 Root      2 has converged.
 Root      3 has converged.
 Root      4 has converged.
 Root      5 has converged.
 Root      6 has converged.
 Excitation Energies [eV] at current iteration:
 Root      1 :     3.398362465624277   Change is   -0.000000117755631
 Root      2 :     3.783541724350793   Change is   -0.000000038797044
 Root      3 :     4.251448169067240   Change is   -0.000000157411239
 Root      4 :     5.135022076073205   Change is   -0.000007202502947
 Root      5 :     5.559851102349641   Change is   -0.000018376624614
 Root      6 :     6.161902094690181   Change is   -0.000000295815298
 Convergence achieved on expansion vectors.
 ***********************************************************************
 Excited states from <AA,BB:AA,BB> singles matrix:
 ***********************************************************************
 
 1PDM for each excited state written to RWF  633
 Ground to excited state transition densities written to RWF  633
 Ground to excited state transition electric dipole moments (Au):
       state          X           Y           Z        Dip. S.      Osc.
         1        -1.5143     -0.0864     -0.0370      2.3018      0.1916
         2         0.2613      0.0306      0.0480      0.0715      0.0066
         3         0.0079     -0.0906      0.0390      0.0098      0.0010
         4         0.0143     -1.3142      0.0936      1.7360      0.2184
         5        -0.2184      1.4375     -0.0393      2.1156      0.2882
         6        -0.0399      0.1537      0.0687      0.0299      0.0045
 Ground to excited state transition velocity dipole moments (Au):
       state          X           Y           Z        Dip. S.      Osc.
         1         0.1824      0.0087      0.0049      0.0334      0.1782
         2        -0.0360     -0.0034     -0.0048      0.0013      0.0064
         3        -0.0012      0.0134     -0.0024      0.0002      0.0008
         4        -0.0064      0.2328     -0.0135      0.0544      0.1922
         5         0.0436     -0.2874      0.0078      0.0846      0.2759
         6         0.0102     -0.0311     -0.0350      0.0023      0.0068
 Ground to excited state transition magnetic dipole moments (Au):
       state          X           Y           Z
         1         0.1187      0.0338     -1.4094
         2         0.7554      0.2580      0.4370
         3        -0.0215     -0.9501     -0.0810
         4         0.0357      0.0583     -0.2460
         5        -0.2100     -0.1116      0.2471
         6         0.0203     -0.0049     -0.0047
 Ground to excited state transition velocity quadrupole moments (Au):
       state          XX          YY          ZZ          XY          XZ          YZ
         1         0.2554     -0.1111     -0.0039     -0.4918      0.0512     -0.0068
         2        -0.0471     -0.0045      0.0022      0.1036     -0.0404      0.0539
         3        -0.0081      0.0061     -0.0183     -0.0276      0.0654      0.0056
         4        -1.1777      0.2264      0.0100     -0.1755     -0.0587     -0.0319
         5         0.8398     -0.3884     -0.0410      0.0374      0.0696     -0.0591
         6        -0.1698     -0.1576      0.1423     -0.0177     -0.0150      0.0781
 <0|del|b> * <b|rxdel|0> + <0|del|b> * <b|delr+rdel|0>
 Rotatory Strengths (R) in cgs (10**-40 erg-esu-cm/Gauss)
       state          XX          YY          ZZ    R(velocity)    E-M Angle
         1       -26.9378     45.0288     66.9142     28.3351       86.67
         2        -9.2070    -78.0826    -66.0640    -51.1179      155.38
         3       -30.1161      0.3341    -26.6743    -18.8188      163.64
         4        61.6796      1.7351     -1.0185     20.7987       73.76
         5        93.9570    -17.4585      9.4840     28.6608       75.57
         6         0.7369      0.8503      0.0505      0.5459       59.20
 1/2[<0|r|b>*<b|rxdel|0> + (<0|rxdel|b>*<b|r|0>)*]
 Rotatory Strengths (R) in cgs (10**-40 erg-esu-cm/Gauss)
       state          XX          YY          ZZ     R(length)
         1       127.1332      2.0659    -36.9119     30.7624
         2      -139.5676     -5.5805    -14.8301    -53.3261
         3         0.1198    -60.8677      2.2323    -19.5052
         4        -0.3614     54.1446     16.2904     23.3579
         5       -32.4302    113.4041      6.8728     29.2822
         6         0.5720      0.5342      0.2300      0.4454
  1/2[<0|del|b>*<b|r|0> + (<0|r|b>*<b|del|0>)*] (Au)
       state          X           Y           Z        Dip. S.   Osc.(frdel)
         1        -0.2763     -0.0007     -0.0002      0.2772      0.1848
         2        -0.0094     -0.0001     -0.0002      0.0097      0.0065
         3        -0.0000     -0.0012     -0.0001      0.0013      0.0009
         4        -0.0001     -0.3059     -0.0013      0.3073      0.2048
         5        -0.0095     -0.4131     -0.0003      0.4230      0.2820
         6        -0.0004     -0.0048     -0.0024      0.0076      0.0051

 Excitation energies and oscillator strengths:
 
 Excited State   1:      Singlet-A      3.3984 eV  364.84 nm  f=0.1916  <S**2>=0.000
      52 -> 53         0.69537
 This state for optimization and/or second-order correction.
 Total Energy, E(TD-HF/TD-DFT) =  -633.201645100    
 Copying the excited state density for this state as the 1-particle RhoCI density.
 
 Excited State   2:      Singlet-A      3.7835 eV  327.69 nm  f=0.0066  <S**2>=0.000
      51 -> 53         0.59704
      51 -> 54        -0.31135
 
 Excited State   3:      Singlet-A      4.2514 eV  291.63 nm  f=0.0010  <S**2>=0.000
      49 -> 53         0.13625
      49 -> 54         0.11075
      50 -> 53         0.52347
      50 -> 54         0.37556
      50 -> 58         0.11711
      51 -> 53         0.10169
      51 -> 54         0.13216
 
 Excited State   4:      Singlet-A      5.1350 eV  241.45 nm  f=0.2184  <S**2>=0.000
      52 -> 54         0.69883
 
 Excited State   5:      Singlet-A      5.5599 eV  223.00 nm  f=0.2882  <S**2>=0.000
      49 -> 53         0.66492
      50 -> 53        -0.19300
 
 Excited State   6:      Singlet-A      6.1619 eV  201.21 nm  f=0.0045  <S**2>=0.000
      52 -> 55         0.66888
      52 -> 56         0.11123
 SavETr:  write IOETrn=   770 NScale= 10 NData=  16 NLR=1 NState=    6 LETran=     118.
 Leave Link  914 at Sat Jan 24 16:16:35 2026, MaxMem=  2147483648 cpu:            2185.8 elap:             137.3
 (Enter /data/home/wyx/g16/l601.exe)
 Copying SCF densities to generalized density rwf, IOpCl= 0 IROHF=0.

 **********************************************************************

            Population analysis using the SCF density.

 **********************************************************************

 Orbital symmetries:
       Occupied  (A) (A) (A) (A) (A) (A) (A) (A) (A) (A) (A) (A)
                 (A) (A) (A) (A) (A) (A) (A) (A) (A) (A) (A) (A)
                 (A) (A) (A) (A) (A) (A) (A) (A) (A) (A) (A) (A)
                 (A) (A) (A) (A) (A) (A) (A) (A) (A) (A) (A) (A)
                 (A) (A) (A) (A)
       Virtual   (A) (A) (A) (A) (A) (A) (A) (A) (A) (A) (A) (A)
                 (A) (A) (A) (A) (A) (A) (A) (A) (A) (A) (A) (A)
                 (A) (A) (A) (A) (A) (A) (A) (A) (A) (A) (A) (A)
                 (A) (A) (A) (A) (A) (A) (A) (A) (A) (A) (A) (A)
                 (A) (A) (A) (A) (A) (A) (A) (A) (A) (A) (A) (A)
                 (A) (A) (A) (A) (A) (A) (A) (A) (A) (A) (A) (A)
                 (A) (A) (A) (A) (A) (A) (A) (A) (A) (A) (A) (A)
                 (A) (A) (A) (A) (A) (A) (A) (A) (A) (A) (A) (A)
                 (A) (A) (A) (A) (A) (A) (A) (A) (A) (A) (A) (A)
                 (A) (A) (A) (A) (A) (A) (A) (A) (A) (A) (A) (A)
                 (A) (A) (A) (A) (A) (A) (A) (A) (A) (A) (A) (A)
                 (A) (A) (A) (A) (A) (A) (A) (A) (A) (A) (A) (A)
                 (A) (A) (A) (A) (A) (A) (A) (A) (A) (A) (A) (A)
                 (A) (A) (A) (A) (A) (A) (A) (A) (A) (A) (A) (A)
                 (A) (A) (A) (A) (A) (A) (A) (A) (A) (A) (A) (A)
                 (A) (A) (A) (A) (A) (A) (A) (A) (A) (A) (A) (A)
                 (A) (A) (A) (A) (A) (A) (A) (A) (A) (A) (A) (A)
                 (A) (A) (A) (A) (A) (A) (A) (A) (A) (A) (A) (A)
                 (A) (A) (A) (A) (A) (A) (A) (A) (A) (A) (A) (A)
                 (A) (A) (A) (A) (A) (A) (A) (A) (A) (A) (A) (A)
                 (A) (A) (A) (A) (A) (A) (A) (A) (A) (A) (A) (A)
                 (A) (A) (A) (A) (A) (A) (A) (A) (A) (A) (A) (A)
                 (A) (A) (A) (A) (A) (A) (A) (A) (A) (A) (A) (A)
                 (A) (A) (A) (A) (A) (A) (A) (A) (A) (A) (A) (A)
                 (A) (A) (A) (A) (A) (A) (A) (A) (A) (A) (A) (A)
                 (A) (A) (A) (A)
 The electronic state is 1-A.
 Alpha  occ. eigenvalues --  -19.17883 -19.17039 -14.44274 -10.33411 -10.33348
 Alpha  occ. eigenvalues --  -10.32211 -10.32111 -10.25658 -10.25074 -10.25053
 Alpha  occ. eigenvalues --  -10.25032 -10.24474 -10.24100 -10.23831  -1.11917
 Alpha  occ. eigenvalues --   -1.10059  -1.07699  -0.91445  -0.90551  -0.83908
 Alpha  occ. eigenvalues --   -0.82500  -0.81482  -0.78707  -0.74233  -0.71443
 Alpha  occ. eigenvalues --   -0.69041  -0.61992  -0.58447  -0.56921  -0.55148
 Alpha  occ. eigenvalues --   -0.54660  -0.54184  -0.52508  -0.51863  -0.50674
 Alpha  occ. eigenvalues --   -0.49810  -0.49393  -0.49074  -0.48382  -0.48276
 Alpha  occ. eigenvalues --   -0.46685  -0.45250  -0.44680  -0.43546  -0.42998
 Alpha  occ. eigenvalues --   -0.42433  -0.41926  -0.41255  -0.33003  -0.32310
 Alpha  occ. eigenvalues --   -0.31167  -0.26327
 Alpha virt. eigenvalues --   -0.02980   0.02023   0.06565   0.08309   0.08805
 Alpha virt. eigenvalues --    0.10199   0.10663   0.12008   0.12691   0.13757
 Alpha virt. eigenvalues --    0.14094   0.15514   0.15678   0.16570   0.16719
 Alpha virt. eigenvalues --    0.17470   0.17631   0.17881   0.18203   0.19106
 Alpha virt. eigenvalues --    0.19889   0.21063   0.22668   0.23316   0.23792
 Alpha virt. eigenvalues --    0.24431   0.24683   0.25467   0.25798   0.26416
 Alpha virt. eigenvalues --    0.27418   0.27729   0.28897   0.29748   0.29943
 Alpha virt. eigenvalues --    0.31443   0.32111   0.32503   0.33674   0.34677
 Alpha virt. eigenvalues --    0.35410   0.35752   0.36885   0.37817   0.38277
 Alpha virt. eigenvalues --    0.39498   0.41251   0.41833   0.42181   0.42945
 Alpha virt. eigenvalues --    0.44111   0.44641   0.45267   0.46223   0.46417
 Alpha virt. eigenvalues --    0.46813   0.48205   0.48265   0.48579   0.48934
 Alpha virt. eigenvalues --    0.49551   0.49790   0.50671   0.51444   0.51884
 Alpha virt. eigenvalues --    0.52132   0.52869   0.53590   0.53798   0.54475
 Alpha virt. eigenvalues --    0.54650   0.55615   0.55822   0.56776   0.58060
 Alpha virt. eigenvalues --    0.58723   0.59104   0.59788   0.61499   0.62189
 Alpha virt. eigenvalues --    0.63691   0.64784   0.66031   0.66918   0.67868
 Alpha virt. eigenvalues --    0.69796   0.70946   0.71259   0.71800   0.72585
 Alpha virt. eigenvalues --    0.73467   0.74711   0.75353   0.76735   0.78419
 Alpha virt. eigenvalues --    0.79294   0.80010   0.81401   0.84418   0.86258
 Alpha virt. eigenvalues --    0.87925   0.89690   0.95617   1.00711   1.24275
 Alpha virt. eigenvalues --    1.24771   1.27034   1.28308   1.29898   1.30868
 Alpha virt. eigenvalues --    1.32742   1.33004   1.34020   1.35765   1.35938
 Alpha virt. eigenvalues --    1.37292   1.37684   1.38427   1.39445   1.39578
 Alpha virt. eigenvalues --    1.40145   1.40948   1.41132   1.41826   1.42124
 Alpha virt. eigenvalues --    1.42889   1.43915   1.44330   1.45091   1.46927
 Alpha virt. eigenvalues --    1.47865   1.49429   1.49727   1.50809   1.51636
 Alpha virt. eigenvalues --    1.51895   1.52737   1.53345   1.55490   1.57264
 Alpha virt. eigenvalues --    1.58333   1.60254   1.60664   1.61562   1.61848
 Alpha virt. eigenvalues --    1.62922   1.63189   1.64479   1.65736   1.66010
 Alpha virt. eigenvalues --    1.66513   1.67281   1.67561   1.68640   1.69036
 Alpha virt. eigenvalues --    1.69353   1.70404   1.71238   1.72267   1.73374
 Alpha virt. eigenvalues --    1.73867   1.74454   1.75957   1.77017   1.79456
 Alpha virt. eigenvalues --    1.80643   1.83059   1.84598   1.85495   1.86266
 Alpha virt. eigenvalues --    1.86848   1.86961   1.87990   1.89702   1.90122
 Alpha virt. eigenvalues --    1.91536   1.93680   1.96310   1.98417   2.00668
 Alpha virt. eigenvalues --    2.01283   2.04178   2.05205   2.06874   2.09619
 Alpha virt. eigenvalues --    2.10974   2.13930   2.14276   2.18241   2.19915
 Alpha virt. eigenvalues --    2.21100   2.22344   2.22880   2.23917   2.25154
 Alpha virt. eigenvalues --    2.27349   2.28708   2.29740   2.31406   2.32295
 Alpha virt. eigenvalues --    2.34170   2.34467   2.36223   2.37510   2.39001
 Alpha virt. eigenvalues --    2.39912   2.40792   2.41232   2.44389   2.44837
 Alpha virt. eigenvalues --    2.45410   2.48039   2.48744   2.50210   2.51513
 Alpha virt. eigenvalues --    2.52816   2.53450   2.54188   2.56324   2.57996
 Alpha virt. eigenvalues --    2.58515   2.59980   2.60788   2.61719   2.63229
 Alpha virt. eigenvalues --    2.63873   2.66339   2.66605   2.67609   2.68638
 Alpha virt. eigenvalues --    2.70163   2.72071   2.72664   2.73606   2.75072
 Alpha virt. eigenvalues --    2.76268   2.77017   2.77627   2.78221   2.79198
 Alpha virt. eigenvalues --    2.79753   2.81256   2.83371   2.84540   2.84897
 Alpha virt. eigenvalues --    2.85846   2.86565   2.88100   2.89591   2.92750
 Alpha virt. eigenvalues --    2.97659   2.98717   2.99495   3.04639   3.09553
 Alpha virt. eigenvalues --    3.09953   3.11365   3.13544   3.18647   3.19599
 Alpha virt. eigenvalues --    3.21603   3.22774   3.23077   3.25065   3.26139
 Alpha virt. eigenvalues --    3.26810   3.29685   3.32050   3.35184   3.37275
 Alpha virt. eigenvalues --    3.38557   3.39463   3.39907   3.40987   3.41328
 Alpha virt. eigenvalues --    3.42149   3.44422   3.45394   3.46743   3.49636
 Alpha virt. eigenvalues --    3.49914   3.51266   3.54233   3.57353   3.59111
 Alpha virt. eigenvalues --    3.60784   3.90735   3.99598   4.31957   4.34900
 Alpha virt. eigenvalues --   21.63562  21.77162  22.06200  22.10263  22.11389
 Alpha virt. eigenvalues --   22.12873  22.15716  22.18155  22.21036  22.26029
 Alpha virt. eigenvalues --   22.30883  31.93226  43.63076  43.65336
          Condensed to atoms (all electrons):
               1          2          3          4          5          6
     1  O    7.952967   0.000000  -0.000230   0.000017   0.016919   0.016444
     2  O    0.000000   8.059152   0.000491   0.000035  -0.189579   0.001376
     3  N   -0.000230   0.000491   6.369563   0.373886  -0.104494   0.357797
     4  H    0.000017   0.000035   0.373886   0.396131   0.013223  -0.042587
     5  C    0.016919  -0.189579  -0.104494   0.013223   7.087547  -0.047486
     6  C    0.016444   0.001376   0.357797  -0.042587  -0.047486   5.592181
     7  C   -0.000254  -0.017212   0.367228  -0.043477   0.376764  -0.126471
     8  C   -0.000276   0.659974   0.004292  -0.000867  -0.415609   0.041738
     9  C   -0.019159   0.019723   0.017739   0.000150  -0.582848  -0.102782
    10  H    0.004173   0.000050   0.003118   0.000028  -0.029050  -0.009427
    11  H    0.014223  -0.000189  -0.001410   0.000004  -0.116869   0.023035
    12  C   -0.232552  -0.002817  -0.097579   0.016396   0.170212  -0.162787
    13  C    0.723675  -0.000016   0.000312   0.000437   0.069102   0.148210
    14  C   -0.000010  -0.050041  -0.045493  -0.001379  -0.029013  -0.003655
    15  H    0.000000   0.004797   0.004315   0.000030   0.008583   0.005099
    16  H   -0.000000   0.000801  -0.003762   0.000609  -0.012299  -0.000523
    17  H    0.000000   0.016823   0.003621   0.000717   0.002647  -0.000474
    18  C   -0.000233  -0.101420  -0.000348   0.000018  -0.187166  -0.001370
    19  H   -0.000003   0.005194   0.000006  -0.000001   0.015990   0.000032
    20  H    0.000017  -0.000525   0.000014  -0.000001  -0.011291   0.000184
    21  H    0.000342   0.006159   0.000110   0.000000   0.068721  -0.001482
    22  C   -0.113815   0.000000   0.000146   0.000107   0.002478  -0.010629
    23  H    0.004382  -0.000000  -0.000010  -0.000050  -0.000453  -0.031010
    24  H    0.001722   0.000000   0.000022  -0.000017  -0.000082   0.011014
    25  H    0.009080   0.000000   0.000026  -0.000002  -0.000120  -0.001270
    26  C    0.000913   0.000005  -0.029247  -0.008170   0.000530   0.188369
    27  H   -0.000164  -0.000000   0.001866   0.000879   0.000097  -0.041096
    28  H   -0.000037  -0.000000  -0.002711   0.000500   0.000388  -0.036207
    29  H    0.000022  -0.000000   0.002137   0.001421  -0.000451  -0.051154
               7          8          9         10         11         12
     1  O   -0.000254  -0.000276  -0.019159   0.004173   0.014223  -0.232552
     2  O   -0.017212   0.659974   0.019723   0.000050  -0.000189  -0.002817
     3  N    0.367228   0.004292   0.017739   0.003118  -0.001410  -0.097579
     4  H   -0.043477  -0.000867   0.000150   0.000028   0.000004   0.016396
     5  C    0.376764  -0.415609  -0.582848  -0.029050  -0.116869   0.170212
     6  C   -0.126471   0.041738  -0.102782  -0.009427   0.023035  -0.162787
     7  C    5.447805  -0.238453  -0.197839  -0.006069   0.016701   0.029477
     8  C   -0.238453   5.619438   0.148236  -0.000988  -0.005712  -0.062428
     9  C   -0.197839   0.148236   6.383328   0.395085   0.541592  -0.076263
    10  H   -0.006069  -0.000988   0.395085   0.549429  -0.036419  -0.018988
    11  H    0.016701  -0.005712   0.541592  -0.036419   0.502154  -0.104167
    12  C    0.029477  -0.062428  -0.076263  -0.018988  -0.104167   7.389904
    13  C    0.019576  -0.009009  -0.250479  -0.003853   0.000152  -0.437615
    14  C    0.224754  -0.072883   0.016406  -0.001366   0.000409   0.001349
    15  H   -0.063239   0.006296  -0.000948   0.000129  -0.000006  -0.000787
    16  H   -0.016480   0.004775  -0.000285  -0.000043   0.000051   0.000000
    17  H   -0.043251  -0.018672   0.001187   0.000109  -0.000063  -0.000255
    18  C    0.013112   0.319077  -0.003477  -0.010084  -0.000248   0.006490
    19  H    0.000286  -0.044389  -0.001667   0.000258   0.000526  -0.000228
    20  H   -0.000830  -0.008609  -0.002715   0.000480  -0.000663  -0.001991
    21  H    0.003869  -0.110289  -0.014908   0.000627  -0.006625   0.006285
    22  C    0.000458  -0.000033   0.008103   0.001519   0.000649  -0.272761
    23  H    0.000003  -0.000004   0.002885  -0.000139  -0.000036   0.058699
    24  H   -0.000015   0.000003  -0.002155   0.000159  -0.000114  -0.006685
    25  H    0.000013   0.000002  -0.000026  -0.000048  -0.000105   0.026386
    26  C    0.003161   0.000670   0.020518  -0.000519   0.000036  -0.079671
    27  H   -0.000700  -0.000003  -0.000940  -0.000053   0.000005  -0.004698
    28  H   -0.001089  -0.000014  -0.000176  -0.000021   0.000052  -0.019418
    29  H    0.003487   0.000005  -0.000579   0.000066  -0.000007   0.023535
              13         14         15         16         17         18
     1  O    0.723675  -0.000010   0.000000  -0.000000   0.000000  -0.000233
     2  O   -0.000016  -0.050041   0.004797   0.000801   0.016823  -0.101420
     3  N    0.000312  -0.045493   0.004315  -0.003762   0.003621  -0.000348
     4  H    0.000437  -0.001379   0.000030   0.000609   0.000717   0.000018
     5  C    0.069102  -0.029013   0.008583  -0.012299   0.002647  -0.187166
     6  C    0.148210  -0.003655   0.005099  -0.000523  -0.000474  -0.001370
     7  C    0.019576   0.224754  -0.063239  -0.016480  -0.043251   0.013112
     8  C   -0.009009  -0.072883   0.006296   0.004775  -0.018672   0.319077
     9  C   -0.250479   0.016406  -0.000948  -0.000285   0.001187  -0.003477
    10  H   -0.003853  -0.001366   0.000129  -0.000043   0.000109  -0.010084
    11  H    0.000152   0.000409  -0.000006   0.000051  -0.000063  -0.000248
    12  C   -0.437615   0.001349  -0.000787   0.000000  -0.000255   0.006490
    13  C    5.487985  -0.000033  -0.000017  -0.000026   0.000002   0.000858
    14  C   -0.000033   5.226602   0.383803   0.398544   0.421874  -0.000045
    15  H   -0.000017   0.383803   0.567338  -0.028002  -0.026467   0.000180
    16  H   -0.000026   0.398544  -0.028002   0.503732  -0.020633   0.000011
    17  H    0.000002   0.421874  -0.026467  -0.020633   0.482112   0.000537
    18  C    0.000858  -0.000045   0.000180   0.000011   0.000537   5.239271
    19  H   -0.000014   0.000006  -0.000002  -0.000013   0.000091   0.402996
    20  H   -0.000084  -0.000296  -0.000005   0.000014   0.000023   0.391858
    21  H    0.001283   0.000327  -0.000021  -0.000002  -0.000109   0.398678
    22  C    0.305431  -0.000001   0.000002  -0.000001   0.000000   0.000020
    23  H   -0.082835   0.000001  -0.000000   0.000000   0.000000   0.000002
    24  H   -0.029122  -0.000001   0.000000   0.000000  -0.000000  -0.000001
    25  H   -0.045735   0.000001   0.000000  -0.000000  -0.000000  -0.000000
    26  C   -0.055629   0.000862  -0.000245  -0.000072   0.000027  -0.000006
    27  H   -0.006736   0.000080  -0.000013   0.000004  -0.000002   0.000000
    28  H    0.006502  -0.000063   0.000013  -0.000017   0.000002  -0.000001
    29  H   -0.000269  -0.000088   0.000083   0.000003   0.000001   0.000000
              19         20         21         22         23         24
     1  O   -0.000003   0.000017   0.000342  -0.113815   0.004382   0.001722
     2  O    0.005194  -0.000525   0.006159   0.000000  -0.000000   0.000000
     3  N    0.000006   0.000014   0.000110   0.000146  -0.000010   0.000022
     4  H   -0.000001  -0.000001   0.000000   0.000107  -0.000050  -0.000017
     5  C    0.015990  -0.011291   0.068721   0.002478  -0.000453  -0.000082
     6  C    0.000032   0.000184  -0.001482  -0.010629  -0.031010   0.011014
     7  C    0.000286  -0.000830   0.003869   0.000458   0.000003  -0.000015
     8  C   -0.044389  -0.008609  -0.110289  -0.000033  -0.000004   0.000003
     9  C   -0.001667  -0.002715  -0.014908   0.008103   0.002885  -0.002155
    10  H    0.000258   0.000480   0.000627   0.001519  -0.000139   0.000159
    11  H    0.000526  -0.000663  -0.006625   0.000649  -0.000036  -0.000114
    12  C   -0.000228  -0.001991   0.006285  -0.272761   0.058699  -0.006685
    13  C   -0.000014  -0.000084   0.001283   0.305431  -0.082835  -0.029122
    14  C    0.000006  -0.000296   0.000327  -0.000001   0.000001  -0.000001
    15  H   -0.000002  -0.000005  -0.000021   0.000002  -0.000000   0.000000
    16  H   -0.000013   0.000014  -0.000002  -0.000001   0.000000   0.000000
    17  H    0.000091   0.000023  -0.000109   0.000000   0.000000  -0.000000
    18  C    0.402996   0.391858   0.398678   0.000020   0.000002  -0.000001
    19  H    0.506187  -0.012738  -0.028286  -0.000000   0.000000   0.000000
    20  H   -0.012738   0.491998  -0.020456  -0.000004  -0.000000   0.000000
    21  H   -0.028286  -0.020456   0.541203   0.000031  -0.000000  -0.000000
    22  C   -0.000000  -0.000004   0.000031   5.425282   0.393069   0.403340
    23  H    0.000000  -0.000000  -0.000000   0.393069   0.539738  -0.027714
    24  H    0.000000   0.000000  -0.000000   0.403340  -0.027714   0.493170
    25  H   -0.000000  -0.000000  -0.000000   0.382717  -0.021362  -0.008006
    26  C    0.000000   0.000002  -0.000014  -0.033379   0.018083  -0.015695
    27  H   -0.000000   0.000000  -0.000000   0.011025  -0.009626  -0.001165
    28  H    0.000000  -0.000000  -0.000000  -0.012387  -0.001720   0.001383
    29  H    0.000000  -0.000000   0.000000   0.001824   0.000731   0.000195
              25         26         27         28         29
     1  O    0.009080   0.000913  -0.000164  -0.000037   0.000022
     2  O    0.000000   0.000005  -0.000000  -0.000000  -0.000000
     3  N    0.000026  -0.029247   0.001866  -0.002711   0.002137
     4  H   -0.000002  -0.008170   0.000879   0.000500   0.001421
     5  C   -0.000120   0.000530   0.000097   0.000388  -0.000451
     6  C   -0.001270   0.188369  -0.041096  -0.036207  -0.051154
     7  C    0.000013   0.003161  -0.000700  -0.001089   0.003487
     8  C    0.000002   0.000670  -0.000003  -0.000014   0.000005
     9  C   -0.000026   0.020518  -0.000940  -0.000176  -0.000579
    10  H   -0.000048  -0.000519  -0.000053  -0.000021   0.000066
    11  H   -0.000105   0.000036   0.000005   0.000052  -0.000007
    12  C    0.026386  -0.079671  -0.004698  -0.019418   0.023535
    13  C   -0.045735  -0.055629  -0.006736   0.006502  -0.000269
    14  C    0.000001   0.000862   0.000080  -0.000063  -0.000088
    15  H    0.000000  -0.000245  -0.000013   0.000013   0.000083
    16  H   -0.000000  -0.000072   0.000004  -0.000017   0.000003
    17  H   -0.000000   0.000027  -0.000002   0.000002   0.000001
    18  C   -0.000000  -0.000006   0.000000  -0.000001   0.000000
    19  H   -0.000000   0.000000  -0.000000   0.000000   0.000000
    20  H   -0.000000   0.000002   0.000000  -0.000000  -0.000000
    21  H   -0.000000  -0.000014  -0.000000  -0.000000   0.000000
    22  C    0.382717  -0.033379   0.011025  -0.012387   0.001824
    23  H   -0.021362   0.018083  -0.009626  -0.001720   0.000731
    24  H   -0.008006  -0.015695  -0.001165   0.001383   0.000195
    25  H    0.498946   0.001886   0.000801   0.000108  -0.000047
    26  C    0.001886   5.250854   0.419617   0.433760   0.389365
    27  H    0.000801   0.419617   0.511147  -0.026570  -0.025606
    28  H    0.000108   0.433760  -0.026570   0.474318  -0.016486
    29  H   -0.000047   0.389365  -0.025606  -0.016486   0.516327
 Mulliken charges:
               1
     1  O   -0.378162
     2  O   -0.412781
     3  N   -0.221406
     4  H    0.291960
     5  C   -0.106390
     6  C    0.284932
     7  C    0.248684
     8  C    0.183733
     9  C   -0.297707
    10  H    0.161837
    11  H    0.173042
    12  C   -0.147045
    13  C    0.157948
    14  C   -0.470650
    15  H    0.139086
    16  H    0.173613
    17  H    0.180152
    18  C   -0.468710
    19  H    0.155769
    20  H    0.175619
    21  H    0.154560
    22  C   -0.493193
    23  H    0.157367
    24  H    0.179765
    25  H    0.156759
    26  C   -0.506011
    27  H    0.171850
    28  H    0.199892
    29  H    0.155486
 Sum of Mulliken charges =  -0.00000
 Mulliken charges with hydrogens summed into heavy atoms:
               1
     1  O   -0.378162
     2  O   -0.412781
     3  N    0.070554
     5  C   -0.106390
     6  C    0.284932
     7  C    0.248684
     8  C    0.183733
     9  C    0.037172
    12  C   -0.147045
    13  C    0.157948
    14  C    0.022201
    18  C    0.017238
    22  C    0.000698
    26  C    0.021218
 Electronic spatial extent (au):  <R**2>=           3208.9986
 Charge=              0.0000 electrons
 Dipole moment (field-independent basis, Debye):
    X=             -4.3889    Y=              7.6438    Z=             -0.3156  Tot=              8.8199
 Quadrupole moment (field-independent basis, Debye-Ang):
   XX=            -99.2776   YY=            -78.2870   ZZ=            -84.6337
   XY=            -13.3886   XZ=             -4.1771   YZ=             -1.1579
 Traceless Quadrupole moment (field-independent basis, Debye-Ang):
   XX=            -11.8782   YY=              9.1124   ZZ=              2.7657
   XY=            -13.3886   XZ=             -4.1771   YZ=             -1.1579
 Octapole moment (field-independent basis, Debye-Ang**2):
  XXX=           -117.9372  YYY=             65.6849  ZZZ=              2.1881  XYY=             37.3719
  XXY=             30.2406  XXZ=             -9.7530  XZZ=             -2.2493  YZZ=             -0.8291
  YYZ=              2.3035  XYZ=              3.3904
 Hexadecapole moment (field-independent basis, Debye-Ang**3):
 XXXX=          -3113.5087 YYYY=          -1271.2995 ZZZZ=           -141.2412 XXXY=            -44.5606
 XXXZ=            -55.4911 YYYX=            -94.7160 YYYZ=            -17.9849 ZZZX=              3.6869
 ZZZY=              3.7018 XXYY=           -688.9064 XXZZ=           -488.4199 YYZZ=           -236.6888
 XXYZ=             -2.4575 YYXZ=             -4.2456 ZZXY=             -0.7491
 N-N= 8.998541471682D+02 E-N=-3.275723807933D+03  KE= 6.306768850425D+02
 Leave Link  601 at Sat Jan 24 16:16:36 2026, MaxMem=  2147483648 cpu:               0.7 elap:               0.1
 (Enter /data/home/wyx/g16/l9999.exe)
 Electronic transition elements 
                 1             2             3             4             5 
      1  -0.633202D+03 -0.633187D+03 -0.633170D+03 -0.633138D+03 -0.633122D+03
      2   0.141815D+01 -0.242011D+00  0.306846D-01  0.446995D+00 -0.289947D+00
      3   0.443260D+00 -0.624628D-01 -0.883544D-01 -0.123938D+01  0.142476D+01
      4   0.306885D+00 -0.950571D-01 -0.322517D-01  0.125492D-01 -0.403782D-01
      5  -0.170190D+00  0.334024D-01 -0.383214D-02 -0.750040D-01  0.580314D-01
      6  -0.550398D-01  0.928771D-02  0.129949D-01  0.220823D+00 -0.284827D+00
      7  -0.372876D-01  0.112465D-01  0.148117D-02 -0.459135D-02  0.812183D-02
      8  -0.390594D+00 -0.699655D+00  0.324090D+00 -0.995763D-01  0.278445D+00
      9   0.138613D-01 -0.263861D-01 -0.882580D+00  0.463724D-01 -0.361044D-01
     10   0.135971D+01 -0.581255D+00  0.160536D+00  0.230464D+00 -0.196899D+00
     11  -0.117977D+00  0.311659D-01 -0.477865D-01 -0.105925D+01  0.674736D+00
     12   0.252728D+00 -0.789578D-01  0.228860D-01  0.172624D+00 -0.263085D+00
     13   0.576347D-02 -0.163289D-02  0.461475D-02 -0.546382D-01 -0.120303D-02
     14   0.480817D+00 -0.790794D-01  0.138607D-01 -0.318577D+00  0.348049D+00
     15   0.154707D-01 -0.125326D-01  0.574227D-01 -0.269316D+00  0.178871D+00
     16   0.113998D+00 -0.798268D-01  0.196942D-01 -0.550673D-01  0.152641D+00
                 6 
      1  -0.633100D+03
      2  -0.177819D-02
      3   0.156888D+00
      4  -0.729849D-01
      5  -0.561708D-02
      6  -0.320907D-01
      7   0.351137D-01
      8  -0.179348D-01
      9  -0.115401D-01
     10   0.151926D-02
     11  -0.172773D+00
     12  -0.150093D+00
     13   0.137653D+00
     14   0.236668D-01
     15  -0.491971D-01
     16  -0.704145D-01
 1\1\GINC-CN015\SP\RCAM-B3LYP TD-FC\TZVP\C11H15N1O2\WYX\24-Jan-2026\0\\
 #p CAM-B3LYP TZVP em=gd3bj td(nstates=6,root=1) scrf=(Solvent=Water)\\
 Title Card Required\\0,1\O,0,2.756746,-1.557378,0.701976\O,0,-3.30744,
 -1.656124,-0.946491\N,0,-0.682759,1.521332,0.031125\H,0,-0.989931,2.47
 726,-0.042394\C,0,-1.241283,-0.763631,-0.162046\C,0,0.655073,1.307875,
 0.219942\C,0,-1.610605,0.539222,-0.256069\C,0,-2.153035,-1.824784,-0.4
 73362\C,0,0.136705,-1.118768,0.341052\H,0,0.077853,-1.514042,1.362311\
 H,0,0.555522,-1.926574,-0.257988\C,0,1.112451,0.034591,0.31704\C,0,2.5
 01375,-0.376564,0.467518\C,0,-2.941274,1.072502,-0.646417\H,0,-3.19522
 1,1.971588,-0.079476\H,0,-2.973242,1.333794,-1.706352\H,0,-3.756829,0.
 371028,-0.485348\C,0,-1.787081,-3.257683,-0.232463\H,0,-2.64252,-3.886
 944,0.015502\H,0,-1.328318,-3.695054,-1.12443\H,0,-1.065946,-3.395071,
 0.572529\C,0,3.663169,0.573483,0.316305\H,0,3.547442,1.261102,-0.51729
 8\H,0,3.798262,1.16259,1.224472\H,0,4.556899,-0.027825,0.168583\C,0,1.
 433769,2.586103,0.28769\H,0,2.202954,2.562417,1.050937\H,0,1.906876,2.
 808164,-0.669311\H,0,0.77039,3.417389,0.522464\\Version=ES64L-G16RevA.
 03\State=1-A\HF=-633.3265326\RMSD=5.911e-09\PG=C01 [X(C11H15N1O2)]\\@


 BE CAREFUL NOT TO BECOME TOO GOOD OF A SONGBIRD OR 
 THEY'LL THROW YOU INTO A CAGE.

                                    -- SNOOPY TO WOODSTOCK
 Job cpu time:       0 days  0 hours 52 minutes 22.7 seconds.
 Elapsed time:       0 days  0 hours  3 minutes 17.9 seconds.
 File lengths (MBytes):  RWF=    830 Int=      0 D2E=      0 Chk=     34 Scr=      1
 Normal termination of Gaussian 16 at Sat Jan 24 16:16:38 2026.
