 Entering Gaussian System, Link 0=g16
 Input=DDL-S2-cLR-6.gjf
 Output=DDL-S2-cLR-6.log
 Initial command:
 /data/home/wyx/g16/l1.exe "/scr/tmp/wyx/13119/Gau-1519289.inp" -scrdir="/scr/tmp/wyx/13119/"
 Entering Link 1 = /data/home/wyx/g16/l1.exe PID=   1519290.
  
 Copyright (c) 1988,1990,1992,1993,1995,1998,2003,2009,2016,
            Gaussian, Inc.  All Rights Reserved.
  
 This is part of the Gaussian(R) 16 program.  It is based on
 the Gaussian(R) 09 system (copyright 2009, Gaussian, Inc.),
 the Gaussian(R) 03 system (copyright 2003, Gaussian, Inc.),
 the Gaussian(R) 98 system (copyright 1998, Gaussian, Inc.),
 the Gaussian(R) 94 system (copyright 1995, Gaussian, Inc.),
 the Gaussian 92(TM) system (copyright 1992, Gaussian, Inc.),
 the Gaussian 90(TM) system (copyright 1990, Gaussian, Inc.),
 the Gaussian 88(TM) system (copyright 1988, Gaussian, Inc.),
 the Gaussian 86(TM) system (copyright 1986, Carnegie Mellon
 University), and the Gaussian 82(TM) system (copyright 1983,
 Carnegie Mellon University). Gaussian is a federally registered
 trademark of Gaussian, Inc.
  
 This software contains proprietary and confidential information,
 including trade secrets, belonging to Gaussian, Inc.
  
 This software is provided under written license and may be
 used, copied, transmitted, or stored only in accord with that
 written license.
  
 The following legend is applicable only to US Government
 contracts under FAR:
  
                    RESTRICTED RIGHTS LEGEND
  
 Use, reproduction and disclosure by the US Government is
 subject to restrictions as set forth in subparagraphs (a)
 and (c) of the Commercial Computer Software - Restricted
 Rights clause in FAR 52.227-19.
  
 Gaussian, Inc.
 340 Quinnipiac St., Bldg. 40, Wallingford CT 06492
  
  
 ---------------------------------------------------------------
 Warning -- This program may not be used in any manner that
 competes with the business of Gaussian, Inc. or will provide
 assistance to any competitor of Gaussian, Inc.  The licensee
 of this program is prohibited from giving any competitor of
 Gaussian, Inc. access to this program.  By using this program,
 the user acknowledges that Gaussian, Inc. is engaged in the
 business of creating and licensing software in the field of
 computational chemistry and represents and warrants to the
 licensee that it is not a competitor of Gaussian, Inc. and that
 it will not use this program in any manner prohibited above.
 ---------------------------------------------------------------
  

 Cite this work as:
 Gaussian 16, Revision A.03,
 M. J. Frisch, G. W. Trucks, H. B. Schlegel, G. E. Scuseria, 
 M. A. Robb, J. R. Cheeseman, G. Scalmani, V. Barone, 
 G. A. Petersson, H. Nakatsuji, X. Li, M. Caricato, A. V. Marenich, 
 J. Bloino, B. G. Janesko, R. Gomperts, B. Mennucci, H. P. Hratchian, 
 J. V. Ortiz, A. F. Izmaylov, J. L. Sonnenberg, D. Williams-Young, 
 F. Ding, F. Lipparini, F. Egidi, J. Goings, B. Peng, A. Petrone, 
 T. Henderson, D. Ranasinghe, V. G. Zakrzewski, J. Gao, N. Rega, 
 G. Zheng, W. Liang, M. Hada, M. Ehara, K. Toyota, R. Fukuda, 
 J. Hasegawa, M. Ishida, T. Nakajima, Y. Honda, O. Kitao, H. Nakai, 
 T. Vreven, K. Throssell, J. A. Montgomery, Jr., J. E. Peralta, 
 F. Ogliaro, M. J. Bearpark, J. J. Heyd, E. N. Brothers, K. N. Kudin, 
 V. N. Staroverov, T. A. Keith, R. Kobayashi, J. Normand, 
 K. Raghavachari, A. P. Rendell, J. C. Burant, S. S. Iyengar, 
 J. Tomasi, M. Cossi, J. M. Millam, M. Klene, C. Adamo, R. Cammi, 
 J. W. Ochterski, R. L. Martin, K. Morokuma, O. Farkas, 
 J. B. Foresman, and D. J. Fox, Gaussian, Inc., Wallingford CT, 2016.
 
 ******************************************
 Gaussian 16:  ES64L-G16RevA.03 25-Dec-2016
                24-Jan-2026 
 ******************************************
 %nprocshared=16
 Will use up to   16 processors via shared memory.
 %mem=16GB
 %oldchk=DDL-LR-6.chk
 %chk=DDL-S2-cLR-6.chk
 Copying data from "DDL-LR-6.chk" to current chk file "DDL-S2-cLR-6.chk"
 IOpt=  2 FromEx=T IUOpen= 4 IOptOp= 5 NList=   0 IFRang= 0 IUIn= 4 IUOut= 2.
 ----------------------------------------------------------------------
 #p CAM-B3LYP TZVP em=gd3bj td(nstates=6,root=2) scrf=(Solvent=Water,Co
 rrectedLR,NonEquilibrium=Save) Geom=Check Guess=Read
 ----------------------------------------------------------------------
 1/29=2,30=1,38=1,172=1/1;
 2/12=2,40=1/2;
 3/5=19,7=101,11=9,14=-4,25=1,30=1,70=9002201,71=1,72=1,74=-40,116=-2,124=41/1,2,3,8;
 4/5=1/1;
 5/5=2,38=6,53=1/2;
 8/6=1,10=1,107=2,108=6/1;
 9/8=2,15=1,41=6,42=1,70=2,73=22/14;
 10/5=4,13=10,28=2,74=20/2;
 6/7=2,8=2,9=2,10=2,22=-1/1;
 99/5=1,9=1/99;
 Leave Link    1 at Sat Jan 24 19:15:36 2026, MaxMem=  2147483648 cpu:               0.8 elap:               0.1
 (Enter /data/home/wyx/g16/l101.exe)
 -------------------
 Title Card Required
 -------------------
 Structure from the checkpoint file:  "DDL-S2-cLR-6.chk"
 Charge =  0 Multiplicity = 1
 Z-Matrix found in chk file.
 O,0,2.760405,-1.555555,0.689751
 O,0,-3.339402,-1.661837,-0.863072
 N,0,-0.671754,1.523624,-0.014867
 H,0,-0.980603,2.478498,-0.094279
 C,0,-1.239227,-0.767642,-0.166759
 C,0,0.660059,1.311921,0.19056
 C,0,-1.608605,0.53769,-0.271327
 C,0,-2.150677,-1.825896,-0.437212
 C,0,0.153319,-1.123275,0.295133
 H,0,0.11793,-1.556706,1.301188
 H,0,0.567617,-1.904442,-0.342689
 C,0,1.120531,0.037935,0.297356
 C,0,2.505018,-0.369993,0.473265
 C,0,-2.94411,1.070901,-0.63966
 H,0,-3.25122,1.883088,0.025267
 H,0,-2.955389,1.461451,-1.660282
 H,0,-3.739176,0.329041,-0.593283
 C,0,-1.806385,-3.268498,-0.224969
 H,0,-2.618101,-3.849245,0.216945
 H,0,-1.559398,-3.75311,-1.174406
 H,0,-0.943859,-3.41376,0.422595
 C,0,3.667745,0.586662,0.375697
 H,0,3.586679,1.271735,-0.464221
 H,0,3.757683,1.179408,1.286921
 H,0,4.570556,-0.009722,0.269314
 C,0,1.43952,2.58994,0.264299
 H,0,2.172341,2.580919,1.063334
 H,0,1.958935,2.788452,-0.673345
 H,0,0.769569,3.428417,0.448744
 Recover connectivity data from disk.
 ITRead=  0  0  0  0  0  0  0  0  0  0  0  0  0  0  0  0  0  0  0  0
 ITRead=  0  0  0  0  0  0  0  0  0
 MicOpt= -1 -1 -1 -1 -1 -1 -1 -1 -1 -1 -1 -1 -1 -1 -1 -1 -1 -1 -1 -1
 MicOpt= -1 -1 -1 -1 -1 -1 -1 -1 -1
 NAtoms=     29 NQM=       29 NQMF=       0 NMMI=      0 NMMIF=      0
                NMic=       0 NMicF=      0.
                    Isotopes and Nuclear Properties:
 (Nuclear quadrupole moments (NQMom) in fm**2, nuclear magnetic moments (NMagM)
  in nuclear magnetons)

  Atom         1           2           3           4           5           6           7           8           9          10
 IAtWgt=          16          16          14           1          12          12          12          12          12           1
 AtmWgt=  15.9949146  15.9949146  14.0030740   1.0078250  12.0000000  12.0000000  12.0000000  12.0000000  12.0000000   1.0078250
 NucSpn=           0           0           2           1           0           0           0           0           0           1
 AtZEff=   5.6000000   5.6000000   4.5500000   1.0000000   3.6000000   3.6000000   3.6000000   3.6000000   3.6000000   1.0000000
 NQMom=    0.0000000   0.0000000   2.0440000   0.0000000   0.0000000   0.0000000   0.0000000   0.0000000   0.0000000   0.0000000
 NMagM=    0.0000000   0.0000000   0.4037610   2.7928460   0.0000000   0.0000000   0.0000000   0.0000000   0.0000000   2.7928460
 AtZNuc=   8.0000000   8.0000000   7.0000000   1.0000000   6.0000000   6.0000000   6.0000000   6.0000000   6.0000000   1.0000000

  Atom        11          12          13          14          15          16          17          18          19          20
 IAtWgt=           1          12          12          12           1           1           1          12           1           1
 AtmWgt=   1.0078250  12.0000000  12.0000000  12.0000000   1.0078250   1.0078250   1.0078250  12.0000000   1.0078250   1.0078250
 NucSpn=           1           0           0           0           1           1           1           0           1           1
 AtZEff=   1.0000000   3.6000000   3.6000000   3.6000000   1.0000000   1.0000000   1.0000000   3.6000000   1.0000000   1.0000000
 NQMom=    0.0000000   0.0000000   0.0000000   0.0000000   0.0000000   0.0000000   0.0000000   0.0000000   0.0000000   0.0000000
 NMagM=    2.7928460   0.0000000   0.0000000   0.0000000   2.7928460   2.7928460   2.7928460   0.0000000   2.7928460   2.7928460
 AtZNuc=   1.0000000   6.0000000   6.0000000   6.0000000   1.0000000   1.0000000   1.0000000   6.0000000   1.0000000   1.0000000

  Atom        21          22          23          24          25          26          27          28          29
 IAtWgt=           1          12           1           1           1          12           1           1           1
 AtmWgt=   1.0078250  12.0000000   1.0078250   1.0078250   1.0078250  12.0000000   1.0078250   1.0078250   1.0078250
 NucSpn=           1           0           1           1           1           0           1           1           1
 AtZEff=   1.0000000   3.6000000   1.0000000   1.0000000   1.0000000   3.6000000   1.0000000   1.0000000   1.0000000
 NQMom=    0.0000000   0.0000000   0.0000000   0.0000000   0.0000000   0.0000000   0.0000000   0.0000000   0.0000000
 NMagM=    2.7928460   0.0000000   2.7928460   2.7928460   2.7928460   0.0000000   2.7928460   2.7928460   2.7928460
 AtZNuc=   1.0000000   6.0000000   1.0000000   1.0000000   1.0000000   6.0000000   1.0000000   1.0000000   1.0000000
 Leave Link  101 at Sat Jan 24 19:15:37 2026, MaxMem=  2147483648 cpu:               0.8 elap:               0.1
 (Enter /data/home/wyx/g16/l202.exe)
                          Input orientation:                          
 ---------------------------------------------------------------------
 Center     Atomic      Atomic             Coordinates (Angstroms)
 Number     Number       Type             X           Y           Z
 ---------------------------------------------------------------------
      1          8           0        2.760405   -1.555555    0.689751
      2          8           0       -3.339402   -1.661837   -0.863072
      3          7           0       -0.671754    1.523624   -0.014867
      4          1           0       -0.980603    2.478498   -0.094279
      5          6           0       -1.239227   -0.767642   -0.166759
      6          6           0        0.660059    1.311921    0.190560
      7          6           0       -1.608605    0.537690   -0.271327
      8          6           0       -2.150677   -1.825896   -0.437212
      9          6           0        0.153319   -1.123275    0.295133
     10          1           0        0.117930   -1.556706    1.301188
     11          1           0        0.567617   -1.904442   -0.342689
     12          6           0        1.120531    0.037935    0.297356
     13          6           0        2.505018   -0.369993    0.473265
     14          6           0       -2.944110    1.070901   -0.639660
     15          1           0       -3.251220    1.883088    0.025267
     16          1           0       -2.955389    1.461451   -1.660282
     17          1           0       -3.739176    0.329041   -0.593283
     18          6           0       -1.806385   -3.268498   -0.224969
     19          1           0       -2.618101   -3.849245    0.216945
     20          1           0       -1.559398   -3.753110   -1.174406
     21          1           0       -0.943859   -3.413760    0.422595
     22          6           0        3.667745    0.586662    0.375697
     23          1           0        3.586679    1.271735   -0.464221
     24          1           0        3.757683    1.179408    1.286921
     25          1           0        4.570556   -0.009722    0.269314
     26          6           0        1.439520    2.589940    0.264299
     27          1           0        2.172341    2.580919    1.063334
     28          1           0        1.958935    2.788452   -0.673345
     29          1           0        0.769569    3.428417    0.448744
 ---------------------------------------------------------------------
                    Distance matrix (angstroms):
                    1          2          3          4          5
     1  O    0.000000
     2  O    6.295252   0.000000
     3  N    4.664498   4.240632   0.000000
     4  H    5.557286   4.826733   1.006717   0.000000
     5  C    4.165510   2.386456   2.365375   3.257233   0.000000
     6  C    3.589298   5.094023   1.364091   2.033177   2.838934
     7  C    4.938987   2.860724   1.384026   2.047552   1.360612
     8  C    5.045974   1.273318   3.685766   4.473755   1.422599
     9  C    2.671982   3.718950   2.789788   3.796076   1.509637
    10  H    2.712293   4.080223   3.441516   4.408738   2.149271
    11  H    2.448668   3.948981   3.659938   4.654982   2.141950
    12  C    2.319994   4.911906   2.348838   3.244147   2.536299
    13  C    1.231928   6.132854   3.730407   4.537131   3.819310
    14  C    6.419275   2.770203   2.399776   2.476717   2.551568
    15  H    6.957402   3.655601   2.604702   2.350427   3.333371
    16  H    6.877156   3.246219   2.815359   2.717817   3.185071
    17  H    6.887847   2.048463   3.342255   3.532548   2.763038
    18  C    4.962505   2.310558   4.929094   5.807492   2.565022
    19  H    5.866250   2.543908   5.719242   6.543592   3.397764
    20  H    5.192786   2.763832   5.475068   6.350954   3.167157
    21  H    4.152815   3.234316   4.964189   5.914999   2.726999
    22  C    2.347550   7.462600   4.456646   5.040542   5.119255
    23  H    3.163534   7.532299   4.289478   4.738481   5.247562
    24  H    2.971733   7.941269   4.629584   5.103597   5.556375
    25  H    2.417233   8.159609   5.469344   6.094162   5.875218
    26  C    4.371599   6.495127   2.381689   2.449080   4.316811
    27  H    4.194735   7.217432   3.220135   3.360300   4.936070
    28  H    4.622854   6.921954   2.992308   3.012021   4.809436
    29  H    5.372289   6.671970   2.433225   2.064055   4.692656
                    6          7          8          9         10
     6  C    0.000000
     7  C    2.441231   0.000000
     8  C    4.259135   2.430617   0.000000
     9  C    2.489558   2.486777   2.517619   0.000000
    10  H    3.123527   3.136913   2.870727   1.096021   0.000000
    11  H    3.261578   3.271856   2.721071   1.090267   1.739388
    12  C    1.358853   2.832197   3.835917   1.511262   2.134424
    13  C    2.512495   4.277873   4.962269   2.475814   2.791403
    14  C    3.706399   1.484438   3.010308   3.909260   4.477421
    15  H    3.956218   2.143886   3.896363   4.549938   4.981097
    16  H    4.064411   2.143912   3.598626   4.490938   5.227319
    17  H    4.575339   2.164838   2.681686   4.248532   4.692795
    18  C    5.218836   3.811605   1.498227   2.951767   2.993723
    19  H    6.114300   4.527990   2.177234   3.888161   3.730574
    20  H    5.695934   4.385081   2.146443   3.465397   3.710281
    21  H    4.995844   4.066617   2.171863   2.542905   2.312568
    22  C    3.099428   5.316099   6.351007   3.909164   4.248735
    23  H    2.999243   5.250429   6.520222   4.254486   4.811337
    24  H    3.288593   5.624676   6.849321   4.390607   4.553496
    25  H    4.128550   6.226876   6.998045   4.555508   4.825329
    26  C    1.498776   3.713447   5.734217   3.929787   4.473970
    27  H    2.158492   4.500184   6.352963   4.288081   4.625702
    28  H    2.147919   4.237321   6.183597   4.415859   5.115513
    29  H    2.134996   3.811891   6.076229   4.595787   5.099289
                   11         12         13         14         15
    11  H    0.000000
    12  C    2.118537   0.000000
    13  C    2.602660   1.454013   0.000000
    14  C    4.612275   4.297246   5.745239   0.000000
    15  H    5.391131   4.752981   6.197689   1.093660   0.000000
    16  H    5.047461   4.740450   6.141845   1.092852   1.762489
    17  H    4.857953   4.949215   6.373079   1.088410   1.742345
    18  C    2.740509   4.446590   5.241856   4.505194   5.356212
    19  H    3.774155   5.393886   6.198164   5.004787   5.770374
    20  H    2.938285   4.870331   5.538933   5.047223   6.005681
    21  H    2.268978   4.023877   4.600200   5.024099   5.791233
    22  C    4.041345   2.606825   1.508855   6.706867   7.048092
    23  H    4.383789   2.860795   2.178105   6.536231   6.882602
    24  H    4.726762   3.039206   2.152173   6.974060   7.156232
    25  H    4.470798   3.450468   2.106618   7.646188   8.051240
    26  C    4.618238   2.572076   3.152801   4.726609   4.749718
    27  H    4.966941   2.856535   3.027662   5.599858   5.565929
    28  H    4.905951   3.034885   3.404217   5.195283   5.334178
    29  H    5.395047   3.411959   4.176159   4.531436   4.328293
                   16         17         18         19         20
    16  H    0.000000
    17  H    1.742171   0.000000
    18  C    5.074717   4.100442   0.000000
    19  H    5.642804   4.401290   1.091530   0.000000
    20  H    5.420010   4.664021   1.094204   1.750986   0.000000
    21  H    5.670301   4.780624   1.088297   1.742132   1.744838
    22  C    6.984008   7.474475   6.722288   7.695085   6.968462
    23  H    6.653210   7.387387   7.053800   8.073891   7.227416
    24  H    7.336954   7.775679   7.282069   8.190410   7.658930
    25  H    7.907436   8.361249   7.178392   8.149937   7.326228
    26  C    4.928765   5.715418   6.715399   7.611152   7.162239
    27  H    5.913113   6.539218   7.190665   8.062984   7.684613
    28  H    5.185128   6.206737   7.146000   8.111775   7.444579
    29  H    4.710866   5.569626   7.206809   8.030841   7.722243
                   21         22         23         24         25
    21  H    0.000000
    22  C    6.105118   0.000000
    23  H    6.577696   1.086903   0.000000
    24  H    6.629385   1.090764   1.761892   0.000000
    25  H    6.482264   1.087225   1.774322   1.763609   0.000000
    26  C    6.461421   2.998419   2.622727   2.899868   4.069601
    27  H    6.786562   2.585757   2.459215   2.127800   3.618470
    28  H    6.935036   2.977986   2.234662   3.109206   3.941947
    29  H    7.053503   4.059597   3.663453   3.832676   5.128401
                   26         27         28         29
    26  C    0.000000
    27  H    1.084235   0.000000
    28  H    1.090126   1.762006   0.000000
    29  H    1.088989   1.750355   1.755913   0.000000
 Stoichiometry    C11H15NO2
 Framework group  C1[X(C11H15NO2)]
 Deg. of freedom    81
 Full point group                 C1      NOp   1
 RotChk:  IX=0 Diff= 9.03D-16
 Largest Abelian subgroup         C1      NOp   1
 Largest concise Abelian subgroup C1      NOp   1
                         Standard orientation:                         
 ---------------------------------------------------------------------
 Center     Atomic      Atomic             Coordinates (Angstroms)
 Number     Number       Type             X           Y           Z
 ---------------------------------------------------------------------
      1          8           0       -2.265810   -2.306347   -0.109771
      2          8           0        3.657224   -0.206120    0.260248
      3          7           0       -0.056385    1.801571   -0.141315
      4          1           0       -0.091195    2.807681   -0.144369
      5          6           0        1.291425   -0.139903   -0.045994
      6          6           0       -1.245012    1.134647   -0.085435
      7          6           0        1.194471    1.217250   -0.044068
      8          6           0        2.546460   -0.799348    0.071504
      9          6           0        0.053479   -0.984738   -0.226955
     10          1           0        0.066488   -1.467177   -1.211001
     11          1           0        0.052251   -1.800808    0.496031
     12          6           0       -1.243331   -0.224147   -0.073012
     13          6           0       -2.407076   -1.090149    0.026442
     14          6           0        2.302039    2.200955    0.051702
     15          1           0        2.189051    3.007449   -0.678293
     16          1           0        2.349471    2.660283    1.042204
     17          1           0        3.285699    1.770769   -0.127156
     18          6           0        2.696129   -2.286079   -0.037645
     19          1           0        3.571825   -2.594401   -0.611695
     20          1           0        2.798596   -2.740342    0.952520
     21          1           0        1.841854   -2.770808   -0.506306
     22          6           0       -3.795834   -0.578595    0.320219
     23          1           0       -3.817447    0.164429    1.113193
     24          1           0       -4.240079   -0.133641   -0.571088
     25          1           0       -4.401974   -1.433444    0.609853
     26          6           0       -2.421634    2.061917   -0.040037
     27          1           0       -3.229570    1.735420   -0.685175
     28          1           0       -2.810482    2.154505    0.974162
     29          1           0       -2.127797    3.057966   -0.367825
 ---------------------------------------------------------------------
 Rotational constants (GHZ):           1.0975779           0.4835564           0.3411610
 Leave Link  202 at Sat Jan 24 19:15:37 2026, MaxMem=  2147483648 cpu:               0.0 elap:               0.0
 (Enter /data/home/wyx/g16/l301.exe)
 Standard basis: TZVP (5D, 7F)
 Ernie: Thresh=  0.10000D-02 Tol=  0.10000D-05 Strict=F.
 There are   370 symmetry adapted cartesian basis functions of A   symmetry.
 There are   356 symmetry adapted basis functions of A   symmetry.
   356 basis functions,   610 primitive gaussians,   370 cartesian basis functions
    52 alpha electrons       52 beta electrons
       nuclear repulsion energy       899.2630180187 Hartrees.
 IExCor=20419 DFT=T Ex+Corr=CAM-B3LYP ExCW=0 ScaHFX=  1.000000
 ScaDFX=  1.000000  1.000000  1.000000  0.810000 ScalE2=  1.000000  1.000000
 IRadAn=      5 IRanWt=     -1 IRanGd=            0 ICorTp=0 IEmpDi=141
 HFx  wShort=  0.000000 wLong=  0.330000 cFull=  0.190000 cShort=  0.000000 cLong=  0.460000
 DFx  wShort=  0.000000 wLong=  0.330000 cFull=  0.190000 cShort=  0.000000 cLong=  0.460000
 NAtoms=   29 NActive=   29 NUniq=   29 SFac= 1.00D+00 NAtFMM=   60 NAOKFM=F Big=F
 Integral buffers will be    131072 words long.
 Raffenetti 1 integral format.
 Two-electron integral symmetry is turned on.
 R6Disp:  Grimme-D3(BJ) Dispersion energy=       -0.0261042250 Hartrees.
 Nuclear repulsion after empirical dispersion term =      899.2369137937 Hartrees.
 ------------------------------------------------------------------------------
 Polarizable Continuum Model (PCM)
 =================================
 Model                : PCM.
 Atomic radii         : UFF (Universal Force Field).
 Polarization charges : Total charges.
 Charge compensation  : None.
 Solution method      : On-the-fly selection.
 Cavity type          : Scaled VdW (van der Waals Surface) (Alpha=1.100).
 Cavity algorithm     : GePol (No added spheres)
                        Default sphere list used, NSphG=   29.
                        Lebedev-Laikov grids with approx.  5.0 points / Ang**2.
                        Smoothing algorithm: York/Karplus (Gamma=1.0000).
                        Polarization charges: spherical gaussians, with
                                              point-specific exponents (IZeta= 3).
                        Self-potential: point-specific (ISelfS= 7).
                        Self-field    : sphere-specific E.n sum rule (ISelfD= 2).
 1st derivatives      : Analytical E(r).r(x)/FMM algorithm (CHGder, D1EAlg=3).
                        Cavity 1st derivative terms included.
 Solvent              : Water, Eps=  78.355300 Eps(inf)=   1.777849
 ------------------------------------------------------------------------------
 GePol: Number of generator spheres                  =      29
 GePol: Total number of spheres                      =      29
 GePol: Number of exposed spheres                    =      29 (100.00%)
 GePol: Number of points                             =    2105
 GePol: Average weight of points                     =       0.13
 GePol: Minimum weight of points                     =   0.11D-10
 GePol: Maximum weight of points                     =    0.20577
 GePol: Number of points with low weight             =     137
 GePol: Fraction of low-weight points (<1% of avg)   =       6.51%
 GePol: Cavity surface area                          =    269.293 Ang**2
 GePol: Cavity volume                                =    286.686 Ang**3
 Leave Link  301 at Sat Jan 24 19:15:38 2026, MaxMem=  2147483648 cpu:               0.6 elap:               0.0
 (Enter /data/home/wyx/g16/l302.exe)
 NPDir=0 NMtPBC=     1 NCelOv=     1 NCel=       1 NClECP=     1 NCelD=      1
         NCelK=      1 NCelE2=     1 NClLst=     1 CellRange=     0.0.
 One-electron integrals computed using PRISM.
 One-electron integral symmetry used in STVInt
 NBasis=   356 RedAO= T EigKep=  4.02D-05  NBF=   356
 NBsUse=   356 1.00D-06 EigRej= -1.00D+00 NBFU=   356
 Precomputing XC quadrature grid using
 IXCGrd= 4 IRadAn=           5 IRanWt=          -1 IRanGd=           0 AccXCQ= 0.00D+00.
 Generated NRdTot=       0 NPtTot=           0 NUsed=           0 NTot=          32
 NSgBfM=   366   366   366   366   366 MxSgAt=    29 MxSgA2=    29.
 Leave Link  302 at Sat Jan 24 19:15:38 2026, MaxMem=  2147483648 cpu:               3.1 elap:               0.2
 (Enter /data/home/wyx/g16/l303.exe)
 DipDrv:  MaxL=1.
 Leave Link  303 at Sat Jan 24 19:15:38 2026, MaxMem=  2147483648 cpu:               0.6 elap:               0.0
 (Enter /data/home/wyx/g16/l308.exe)
 Leave Link  308 at Sat Jan 24 19:15:38 2026, MaxMem=  2147483648 cpu:               0.7 elap:               0.1
 (Enter /data/home/wyx/g16/l401.exe)
 Initial guess from the checkpoint file:  "DDL-S2-cLR-6.chk"
 B after Tr=     0.000000   -0.000000    0.000000
         Rot=    1.000000    0.000000    0.000000   -0.000000 Ang=   0.00 deg.
 Guess basis will be translated and rotated to current coordinates.
 JPrj=2 DoOrth=T DoCkMO=T.
 Leave Link  401 at Sat Jan 24 19:15:39 2026, MaxMem=  2147483648 cpu:               2.2 elap:               0.2
 (Enter /data/home/wyx/g16/l502.exe)
 Integral symmetry usage will be decided dynamically.
 Closed shell SCF:
 Using DIIS extrapolation, IDIIS=  1040.
 NGot=  2147483648 LenX=  2147200095 LenY=  2147062754
 Requested convergence on RMS density matrix=1.00D-08 within 128 cycles.
 Requested convergence on MAX density matrix=1.00D-06.
 Requested convergence on             energy=1.00D-06.
 No special actions if energy rises.
 Fock matrices will be formed incrementally for  20 cycles.

 Cycle   1  Pass 1  IDiag  1:
 FoFJK:  IHMeth= 1 ICntrl=       0 DoSepK=T KAlg= 0 I1Cent=           0 FoldK=F
 IRaf=         1 NMat=       1 IRICut=       1 DoRegI=T DoRafI=F ISym2E= 0 IDoP0=0 IntGTp=1.
 FoFCou: FMM=F IPFlag=           0 FMFlag=      100000 FMFlg1=           0
         NFxFlg=           0 DoJE=T BraDBF=F KetDBF=F FulRan=T
         wScrn=  0.000000 ICntrl=       500 IOpCl=  0 I1Cent=           0 NGrid=           0
         NMat0=    1 NMatS0=      1 NMatT0=    0 NMatD0=    1 NMtDS0=    0 NMtDT0=    0
 Symmetry not used in FoFCou.
 Inv3:  Mode=1 IEnd=    13293075.
 Iteration    1 A*A^-1 deviation from unit magnitude is 3.66D-15 for    716.
 Iteration    1 A*A^-1 deviation from orthogonality  is 2.00D-15 for   2012   1601.
 Iteration    1 A^-1*A deviation from unit magnitude is 3.44D-15 for    716.
 Iteration    1 A^-1*A deviation from orthogonality  is 1.69D-15 for   1696    748.
 E= -633.322684269933    
 DIIS: error= 7.41D-09 at cycle   1 NSaved=   1.
 NSaved= 1 IEnMin= 1 EnMin= -633.322684269933     IErMin= 1 ErrMin= 7.41D-09
 ErrMax= 7.41D-09  0.00D+00 EMaxC= 1.00D-01 BMatC= 1.84D-14 BMatP= 1.84D-14
 IDIUse=1 WtCom= 1.00D+00 WtEn= 0.00D+00
 Coeff-Com:  0.100D+01
 Coeff:      0.100D+01
 Gap=     0.230 Goal=   None    Shift=    0.000
 RMSDP=2.11D-09 MaxDP=1.32D-07              OVMax= 1.04D-07

 Error on total polarization charges =  0.01558
 SCF Done:  E(RCAM-B3LYP) =  -633.322684270     A.U. after    1 cycles
            NFock=  1  Conv=0.21D-08     -V/T= 2.0042
 KE= 6.306484342118D+02 PE=-3.274450699984D+03 EE= 1.111242667708D+03
 Leave Link  502 at Sat Jan 24 19:15:44 2026, MaxMem=  2147483648 cpu:              85.6 elap:               5.6
 (Enter /data/home/wyx/g16/l801.exe)
 DoSCS=F DFT=T ScalE2(SS,OS)=  1.000000  1.000000
 ExpMin= 9.52D-02 ExpMax= 2.70D+04 ExpMxC= 9.22D+02 IAcc=3 IRadAn=         5 AccDes= 0.00D+00
 HarFok:  IExCor=  205 AccDes= 0.00D+00 IRadAn=         5 IDoV=-2 UseB2=F ITyADJ=14
 ICtDFT= 12500011 ScaDFX=  1.000000  1.000000  1.000000  1.000000
 Largest valence mixing into a core orbital is  5.63D-05
 Largest core mixing into a valence orbital is  1.11D-05
 Range of M.O.s used for correlation:    15   356
 NBasis=   356 NAE=    52 NBE=    52 NFC=    14 NFV=     0
 NROrb=    342 NOA=    38 NOB=    38 NVA=   304 NVB=   304

 **** Warning!!: The largest alpha MO coefficient is  0.46185577D+02

 Leave Link  801 at Sat Jan 24 19:15:46 2026, MaxMem=  2147483648 cpu:               1.0 elap:               0.1
 (Enter /data/home/wyx/g16/l914.exe)
 RHF ground state
 Two-electron integrals replicated using symmetry.
 MDV=  2147483648 DFT=T DoStab=F Mixed=T DoRPA=T DoScal=F NonHer=T
 NEqPCM:  Using equilibrium solvation (IEInf=0, Eps=  78.3553, EpsInf=   1.7778)
 Making orbital integer symmetry assigments:
 Orbital symmetries:
       Occupied  (A) (A) (A) (A) (A) (A) (A) (A) (A) (A) (A) (A)
                 (A) (A) (A) (A) (A) (A) (A) (A) (A) (A) (A) (A)
                 (A) (A) (A) (A) (A) (A) (A) (A) (A) (A) (A) (A)
                 (A) (A) (A) (A) (A) (A) (A) (A) (A) (A) (A) (A)
                 (A) (A) (A) (A)
       Virtual   (A) (A) (A) (A) (A) (A) (A) (A) (A) (A) (A) (A)
                 (A) (A) (A) (A) (A) (A) (A) (A) (A) (A) (A) (A)
                 (A) (A) (A) (A) (A) (A) (A) (A) (A) (A) (A) (A)
                 (A) (A) (A) (A) (A) (A) (A) (A) (A) (A) (A) (A)
                 (A) (A) (A) (A) (A) (A) (A) (A) (A) (A) (A) (A)
                 (A) (A) (A) (A) (A) (A) (A) (A) (A) (A) (A) (A)
                 (A) (A) (A) (A) (A) (A) (A) (A) (A) (A) (A) (A)
                 (A) (A) (A) (A) (A) (A) (A) (A) (A) (A) (A) (A)
                 (A) (A) (A) (A) (A) (A) (A) (A) (A) (A) (A) (A)
                 (A) (A) (A) (A) (A) (A) (A) (A) (A) (A) (A) (A)
                 (A) (A) (A) (A) (A) (A) (A) (A) (A) (A) (A) (A)
                 (A) (A) (A) (A) (A) (A) (A) (A) (A) (A) (A) (A)
                 (A) (A) (A) (A) (A) (A) (A) (A) (A) (A) (A) (A)
                 (A) (A) (A) (A) (A) (A) (A) (A) (A) (A) (A) (A)
                 (A) (A) (A) (A) (A) (A) (A) (A) (A) (A) (A) (A)
                 (A) (A) (A) (A) (A) (A) (A) (A) (A) (A) (A) (A)
                 (A) (A) (A) (A) (A) (A) (A) (A) (A) (A) (A) (A)
                 (A) (A) (A) (A) (A) (A) (A) (A) (A) (A) (A) (A)
                 (A) (A) (A) (A) (A) (A) (A) (A) (A) (A) (A) (A)
                 (A) (A) (A) (A) (A) (A) (A) (A) (A) (A) (A) (A)
                 (A) (A) (A) (A) (A) (A) (A) (A) (A) (A) (A) (A)
                 (A) (A) (A) (A) (A) (A) (A) (A) (A) (A) (A) (A)
                 (A) (A) (A) (A) (A) (A) (A) (A) (A) (A) (A) (A)
                 (A) (A) (A) (A) (A) (A) (A) (A) (A) (A) (A) (A)
                 (A) (A) (A) (A) (A) (A) (A) (A) (A) (A) (A) (A)
                 (A) (A) (A) (A)
 PCM Corrected Linear-Response:
 Compute the excitation energies in the ground state reaction field.
    24 initial guesses have been made.
 Convergence on wavefunction:    0.000001000000000
 Davidson Disk Diagonalization:  ConvIn= 1.00D-06 SkipCon=T Conv= 1.00D-06.
 Max sub-space:  2000 roots to seek:    24 dimension of matrix:        23104
 Iteration     1 Dimension    24 NMult     0 NNew     24
 CISAX will form    24 AO SS matrices at one time.
 NMat=    24 NSing=    24 JSym2X= 0.
 FoFJK:  IHMeth= 1 ICntrl=       0 DoSepK=T KAlg= 0 I1Cent=           0 FoldK=F
 IRaf=         1 NMat=      48 IRICut=       1 DoRegI=T DoRafI=F ISym2E= 0 IDoP0=3 IntGTp=3.
 FoFCou: FMM=F IPFlag=           0 FMFlag=      100000 FMFlg1=           0
         NFxFlg=           0 DoJE=F BraDBF=F KetDBF=F FulRan=T
         wScrn=  0.000000 ICntrl=       500 IOpCl=  0 I1Cent=           0 NGrid=           0
         NMat0=   24 NMatS0=     24 NMatT0=    0 NMatD0=   24 NMtDS0=    0 NMtDT0=    0
 Symmetry not used in FoFCou.
 New state      1 was old state      2
 New state      2 was old state      1
 New state      3 was old state      4
 New state      4 was old state      3
 New state      5 was old state      7
 New state      6 was old state      5
 Excitation Energies [eV] at current iteration:
 Root      1 :     3.791472158962362
 Root      2 :     3.905569451362626
 Root      3 :     4.499458420695850
 Root      4 :     5.481754256563893
 Root      5 :     6.341989759277523
 Root      6 :     6.523345674517515
 Root      7 :     6.651842437505405
 Root      8 :     6.725518649223889
 Root      9 :     6.957131978747634
 Root     10 :     7.220675703325870
 Root     11 :     7.278871456760230
 Root     12 :     7.307997641766696
 Root     13 :     7.573622263670040
 Root     14 :     7.677934474806466
 Root     15 :     7.746408963626690
 Root     16 :     7.781300883668061
 Root     17 :     8.030351003909036
 Root     18 :     8.239425409804205
 Root     19 :     8.296597419951498
 Root     20 :     8.414235974605059
 Root     21 :     8.568297659532126
 Root     22 :     8.778221650254984
 Root     23 :     8.843235872346266
 Root     24 :     9.182394620810385
 Iteration     2 Dimension    36 NMult    24 NNew     12
 CISAX will form    12 AO SS matrices at one time.
 NMat=    12 NSing=    12 JSym2X= 0.
 Root      1 not converged, maximum delta is    0.392609683838290
 Root      2 not converged, maximum delta is    0.377357903772250
 Root      3 not converged, maximum delta is    0.092451705252113
 Root      4 not converged, maximum delta is    0.232988115177699
 New state      5 was old state      6
 Root      5 not converged, maximum delta is    0.239124688690362
 New state      6 was old state      5
 Root      6 not converged, maximum delta is    0.142687129976180
 Excitation Energies [eV] at current iteration:
 Root      1 :     3.395931363817537   Change is   -0.395540795144824
 Root      2 :     3.629207308336624   Change is   -0.276362143026002
 Root      3 :     4.253972286141840   Change is   -0.245486134554010
 Root      4 :     5.177976052281489   Change is   -0.303778204282404
 Root      5 :     5.585879646494289   Change is   -0.937466028023226
 Root      6 :     6.201940738350615   Change is   -0.140049020926907
 Iteration     3 Dimension    48 NMult    36 NNew     12
 CISAX will form    12 AO SS matrices at one time.
 NMat=    12 NSing=    12 JSym2X= 0.
 Root      1 not converged, maximum delta is    0.010181697602504
 Root      2 not converged, maximum delta is    0.010098269803302
 Root      3 not converged, maximum delta is    0.017172958610127
 Root      4 not converged, maximum delta is    0.032173123061137
 Root      5 not converged, maximum delta is    0.031911841916639
 Root      6 not converged, maximum delta is    0.018564470556554
 Excitation Energies [eV] at current iteration:
 Root      1 :     3.375997155102797   Change is   -0.019934208714740
 Root      2 :     3.619053372880555   Change is   -0.010153935456070
 Root      3 :     4.240692202004830   Change is   -0.013280084137010
 Root      4 :     5.155175609034530   Change is   -0.022800443246960
 Root      5 :     5.548859885021478   Change is   -0.037019761472810
 Root      6 :     6.191049590888352   Change is   -0.010891147462263
 Iteration     4 Dimension    60 NMult    48 NNew     12
 CISAX will form    12 AO SS matrices at one time.
 NMat=    12 NSing=    12 JSym2X= 0.
 Root      1 not converged, maximum delta is    0.001898048256553
 Root      2 not converged, maximum delta is    0.001578596504242
 Root      3 not converged, maximum delta is    0.002271545418686
 Root      4 not converged, maximum delta is    0.003676556415735
 Root      5 not converged, maximum delta is    0.005002115083010
 Root      6 not converged, maximum delta is    0.003701017967781
 Excitation Energies [eV] at current iteration:
 Root      1 :     3.374476040775936   Change is   -0.001521114326861
 Root      2 :     3.618353452597793   Change is   -0.000699920282762
 Root      3 :     4.240055836657883   Change is   -0.000636365346947
 Root      4 :     5.152746777725712   Change is   -0.002428831308818
 Root      5 :     5.544538111684362   Change is   -0.004321773337116
 Root      6 :     6.190173378978533   Change is   -0.000876211909819
 Iteration     5 Dimension    72 NMult    60 NNew     12
 CISAX will form    12 AO SS matrices at one time.
 NMat=    12 NSing=    12 JSym2X= 0.
 Root      1 not converged, maximum delta is    0.000911583573346
 Root      2 not converged, maximum delta is    0.000241866997621
 Root      3 not converged, maximum delta is    0.000202272646171
 Root      4 not converged, maximum delta is    0.000566380728863
 Root      5 not converged, maximum delta is    0.001406140139145
 Root      6 not converged, maximum delta is    0.001032516204077
 Excitation Energies [eV] at current iteration:
 Root      1 :     3.374367071888655   Change is   -0.000108968887281
 Root      2 :     3.618316529913857   Change is   -0.000036922683936
 Root      3 :     4.240020040531609   Change is   -0.000035796126275
 Root      4 :     5.152578268117705   Change is   -0.000168509608007
 Root      5 :     5.544135716491312   Change is   -0.000402395193050
 Root      6 :     6.190106671157759   Change is   -0.000066707820774
 Iteration     6 Dimension    84 NMult    72 NNew     12
 CISAX will form    12 AO SS matrices at one time.
 NMat=    12 NSing=    12 JSym2X= 0.
 Root      1 not converged, maximum delta is    0.000164979393774
 Root      2 not converged, maximum delta is    0.000061518021985
 Root      3 not converged, maximum delta is    0.000062088482209
 Root      4 not converged, maximum delta is    0.000216039764270
 Root      5 not converged, maximum delta is    0.000354893999644
 Root      6 not converged, maximum delta is    0.000179434719124
 Excitation Energies [eV] at current iteration:
 Root      1 :     3.374360465252563   Change is   -0.000006606636093
 Root      2 :     3.618314171845698   Change is   -0.000002358068159
 Root      3 :     4.240017676736955   Change is   -0.000002363794653
 Root      4 :     5.152565169626340   Change is   -0.000013098491365
 Root      5 :     5.544103517364582   Change is   -0.000032199126731
 Root      6 :     6.190101145459582   Change is   -0.000005525698176
 Iteration     7 Dimension    96 NMult    84 NNew     12
 CISAX will form    12 AO SS matrices at one time.
 NMat=    12 NSing=    12 JSym2X= 0.
 Root      1 not converged, maximum delta is    0.000018162594023
 Root      2 not converged, maximum delta is    0.000016335583417
 Root      3 not converged, maximum delta is    0.000008646504143
 Root      4 not converged, maximum delta is    0.000057181117206
 Root      5 not converged, maximum delta is    0.000109570604056
 Root      6 not converged, maximum delta is    0.000063018844813
 Excitation Energies [eV] at current iteration:
 Root      1 :     3.374360034675492   Change is   -0.000000430577071
 Root      2 :     3.618314068247956   Change is   -0.000000103597742
 Root      3 :     4.240017549861408   Change is   -0.000000126875548
 Root      4 :     5.152564089094541   Change is   -0.000001080531799
 Root      5 :     5.544100949103193   Change is   -0.000002568261389
 Root      6 :     6.190100635031715   Change is   -0.000000510427868
 Iteration     8 Dimension   108 NMult    96 NNew     12
 CISAX will form    12 AO SS matrices at one time.
 NMat=    12 NSing=    12 JSym2X= 0.
 Root      1 not converged, maximum delta is    0.000004981751509
 Root      2 not converged, maximum delta is    0.000003602745305
 Root      3 not converged, maximum delta is    0.000002186823272
 Root      4 not converged, maximum delta is    0.000027707940812
 Root      5 not converged, maximum delta is    0.000033474027754
 Root      6 not converged, maximum delta is    0.000020254138555
 Excitation Energies [eV] at current iteration:
 Root      1 :     3.374360018222636   Change is   -0.000000016452856
 Root      2 :     3.618314064000141   Change is   -0.000000004247815
 Root      3 :     4.240017544277156   Change is   -0.000000005584252
 Root      4 :     5.152564003415527   Change is   -0.000000085679014
 Root      5 :     5.544100750060086   Change is   -0.000000199043106
 Root      6 :     6.190100586687575   Change is   -0.000000048344140
 Iteration     9 Dimension   120 NMult   108 NNew     12
 CISAX will form    12 AO SS matrices at one time.
 NMat=    12 NSing=    12 JSym2X= 0.
 Root      1 has converged.
 Root      2 has converged.
 Root      3 has converged.
 Root      4 not converged, maximum delta is    0.000004400555851
 Root      5 not converged, maximum delta is    0.000006077956335
 Root      6 not converged, maximum delta is    0.000006857438611
 Excitation Energies [eV] at current iteration:
 Root      1 :     3.374360017558005   Change is   -0.000000000664631
 Root      2 :     3.618314063874160   Change is   -0.000000000125982
 Root      3 :     4.240017544093392   Change is   -0.000000000183764
 Root      4 :     5.152563998955443   Change is   -0.000000004460084
 Root      5 :     5.544100739333313   Change is   -0.000000010726773
 Root      6 :     6.190100582553747   Change is   -0.000000004133829
 Iteration    10 Dimension   126 NMult   120 NNew      6
 CISAX will form     6 AO SS matrices at one time.
 NMat=     6 NSing=     6 JSym2X= 0.
 Root      1 has converged.
 Root      2 has converged.
 Root      3 has converged.
 Root      4 has converged.
 Root      5 not converged, maximum delta is    0.000001598295290
 Root      6 not converged, maximum delta is    0.000001472487895
 Excitation Energies [eV] at current iteration:
 Root      1 :     3.374360017553547   Change is   -0.000000000004458
 Root      2 :     3.618314063873864   Change is   -0.000000000000295
 Root      3 :     4.240017544092500   Change is   -0.000000000000892
 Root      4 :     5.152563998750649   Change is   -0.000000000204795
 Root      5 :     5.544100738765966   Change is   -0.000000000567346
 Root      6 :     6.190100582192955   Change is   -0.000000000360791
 Iteration    11 Dimension   130 NMult   126 NNew      4
 CISAX will form     4 AO SS matrices at one time.
 NMat=     4 NSing=     4 JSym2X= 0.
 Root      1 has converged.
 Root      2 has converged.
 Root      3 has converged.
 Root      4 has converged.
 Root      5 has converged.
 Root      6 has converged.
 Excitation Energies [eV] at current iteration:
 Root      1 :     3.374360017553279   Change is   -0.000000000000268
 Root      2 :     3.618314063873842   Change is   -0.000000000000023
 Root      3 :     4.240017544092209   Change is   -0.000000000000291
 Root      4 :     5.152563998745256   Change is   -0.000000000005393
 Root      5 :     5.544100738735955   Change is   -0.000000000030011
 Root      6 :     6.190100582161507   Change is   -0.000000000031449
 Convergence achieved on expansion vectors.
 PCM Corrected Linear-Response:
 The state of interest is root number   2
 Excitation energy =    3.6183 eV, Total energy =  -633.189713675    
 Recompute the excitation energies using the linear response reaction field.
 Convergence on wavefunction:    0.000001000000000
 Davidson Disk Diagonalization:  ConvIn= 1.00D-06 SkipCon=T Conv= 1.00D-06.
 Max sub-space:  2000 roots to seek:     6 dimension of matrix:        23104
 Iteration     1 Dimension     6 NMult     0 NNew      6
 CISAX will form     6 AO SS matrices at one time.
 NMat=     6 NSing=     6 JSym2X= 0.
 Excitation Energies [eV] at current iteration:
 Root      1 :     3.443616388841169
 Root      2 :     3.644569699052842
 Root      3 :     4.265525397998174
 Root      4 :     5.214020532792997
 Root      5 :     5.695231794842606
 Root      6 :     6.148900153488664
 Iteration     2 Dimension    18 NMult     6 NNew     12
 CISAX will form    12 AO SS matrices at one time.
 NMat=    12 NSing=    12 JSym2X= 0.
 Root      1 not converged, maximum delta is    0.076511176073818
 Root      2 not converged, maximum delta is    0.087840072704162
 Root      3 not converged, maximum delta is    0.008198911521241
 Root      4 not converged, maximum delta is    0.292246856641254
 Root      5 not converged, maximum delta is    0.319493039179876
 Root      6 not converged, maximum delta is    0.017959842732256
 Excitation Energies [eV] at current iteration:
 Root      1 :     3.226889977232624   Change is   -0.216726411608544
 Root      2 :     3.609748796792273   Change is   -0.034820902260568
 Root      3 :     4.234273011923523   Change is   -0.031252386074651
 Root      4 :     4.970165208265002   Change is   -0.243855324527995
 Root      5 :     5.403282278201895   Change is   -0.291949516640711
 Root      6 :     6.133562043135890   Change is   -0.015338110352774
 Iteration     3 Dimension    30 NMult    18 NNew     12
 CISAX will form    12 AO SS matrices at one time.
 NMat=    12 NSing=    12 JSym2X= 0.
 Root      1 not converged, maximum delta is    0.003282274178513
 Root      2 not converged, maximum delta is    0.000990469450379
 Root      3 not converged, maximum delta is    0.001349428890508
 Root      4 not converged, maximum delta is    0.013852691830315
 Root      5 not converged, maximum delta is    0.011078240305755
 Root      6 not converged, maximum delta is    0.006260784854461
 Excitation Energies [eV] at current iteration:
 Root      1 :     3.223318081075439   Change is   -0.003571896157186
 Root      2 :     3.609425062693718   Change is   -0.000323734098555
 Root      3 :     4.233916959254895   Change is   -0.000356052668628
 Root      4 :     4.958914893692809   Change is   -0.011250314572193
 Root      5 :     5.395843271108967   Change is   -0.007439007092929
 Root      6 :     6.132055608168148   Change is   -0.001506434967742
 Iteration     4 Dimension    42 NMult    30 NNew     12
 CISAX will form    12 AO SS matrices at one time.
 NMat=    12 NSing=    12 JSym2X= 0.
 Root      1 not converged, maximum delta is    0.001934905896530
 Root      2 not converged, maximum delta is    0.000261344297831
 Root      3 not converged, maximum delta is    0.000253488587132
 Root      4 not converged, maximum delta is    0.004056488722912
 Root      5 not converged, maximum delta is    0.003521625756748
 Root      6 not converged, maximum delta is    0.006742461352729
 Excitation Energies [eV] at current iteration:
 Root      1 :     3.222851568919115   Change is   -0.000466512156323
 Root      2 :     3.609406288224428   Change is   -0.000018774469290
 Root      3 :     4.233896395856289   Change is   -0.000020563398606
 Root      4 :     4.956724269748809   Change is   -0.002190623943999
 Root      5 :     5.394481227837991   Change is   -0.001362043270975
 Root      6 :     6.131598354829260   Change is   -0.000457253338889
 Iteration     5 Dimension    54 NMult    42 NNew     12
 CISAX will form    12 AO SS matrices at one time.
 NMat=    12 NSing=    12 JSym2X= 0.
 Root      1 not converged, maximum delta is    0.000431128742244
 Root      2 not converged, maximum delta is    0.000075481131583
 Root      3 not converged, maximum delta is    0.000112279697380
 Root      4 not converged, maximum delta is    0.001794482215767
 Root      5 not converged, maximum delta is    0.001011852467383
 Root      6 not converged, maximum delta is    0.003915399381678
 Excitation Energies [eV] at current iteration:
 Root      1 :     3.222815838249073   Change is   -0.000035730670043
 Root      2 :     3.609405134217285   Change is   -0.000001154007143
 Root      3 :     4.233894671451063   Change is   -0.000001724405226
 Root      4 :     4.956446200539082   Change is   -0.000278069209728
 Root      5 :     5.394327273576490   Change is   -0.000153954261501
 Root      6 :     6.131473402107305   Change is   -0.000124952721955
 Iteration     6 Dimension    66 NMult    54 NNew     12
 CISAX will form    12 AO SS matrices at one time.
 NMat=    12 NSing=    12 JSym2X= 0.
 Root      1 not converged, maximum delta is    0.000066978619227
 Root      2 not converged, maximum delta is    0.000013907141452
 Root      3 not converged, maximum delta is    0.000023722568086
 Root      4 not converged, maximum delta is    0.000421301347991
 Root      5 not converged, maximum delta is    0.000311017493562
 Root      6 not converged, maximum delta is    0.001317257438179
 Excitation Energies [eV] at current iteration:
 Root      1 :     3.222813529469825   Change is   -0.000002308779247
 Root      2 :     3.609405054733247   Change is   -0.000000079484038
 Root      3 :     4.233894537424042   Change is   -0.000000134027022
 Root      4 :     4.956422405354637   Change is   -0.000023795184445
 Root      5 :     5.394312924897490   Change is   -0.000014348679000
 Root      6 :     6.131450333129314   Change is   -0.000023068977991
 Iteration     7 Dimension    78 NMult    66 NNew     12
 CISAX will form    12 AO SS matrices at one time.
 NMat=    12 NSing=    12 JSym2X= 0.
 Root      1 not converged, maximum delta is    0.000013457891908
 Root      2 not converged, maximum delta is    0.000003534875776
 Root      3 not converged, maximum delta is    0.000009156046902
 Root      4 not converged, maximum delta is    0.000126201263629
 Root      5 not converged, maximum delta is    0.000131196953465
 Root      6 not converged, maximum delta is    0.000391913765281
 Excitation Energies [eV] at current iteration:
 Root      1 :     3.222813432936215   Change is   -0.000000096533610
 Root      2 :     3.609405050420172   Change is   -0.000000004313075
 Root      3 :     4.233894527402086   Change is   -0.000000010021955
 Root      4 :     4.956420592076160   Change is   -0.000001813278477
 Root      5 :     5.394311705063785   Change is   -0.000001219833705
 Root      6 :     6.131447883399152   Change is   -0.000002449730162
 Iteration     8 Dimension    90 NMult    78 NNew     12
 CISAX will form    12 AO SS matrices at one time.
 NMat=    12 NSing=    12 JSym2X= 0.
 Root      1 not converged, maximum delta is    0.000002618442065
 Root      2 has converged.
 Root      3 not converged, maximum delta is    0.000001871947921
 Root      4 not converged, maximum delta is    0.000041213534471
 Root      5 not converged, maximum delta is    0.000051474076648
 Root      6 not converged, maximum delta is    0.000151970052301
 Excitation Energies [eV] at current iteration:
 Root      1 :     3.222813428091838   Change is   -0.000000004844377
 Root      2 :     3.609405050236210   Change is   -0.000000000183961
 Root      3 :     4.233894526797707   Change is   -0.000000000604379
 Root      4 :     4.956420471798872   Change is   -0.000000120277288
 Root      5 :     5.394311603074826   Change is   -0.000000101988960
 Root      6 :     6.131447542919345   Change is   -0.000000340479807
 Iteration     9 Dimension   100 NMult    90 NNew     10
 CISAX will form    10 AO SS matrices at one time.
 NMat=    10 NSing=    10 JSym2X= 0.
 Root      1 has converged.
 Root      2 has converged.
 Root      3 has converged.
 Root      4 not converged, maximum delta is    0.000015093611974
 Root      5 not converged, maximum delta is    0.000022296876531
 Root      6 not converged, maximum delta is    0.000047567694027
 Excitation Energies [eV] at current iteration:
 Root      1 :     3.222813427936443   Change is   -0.000000000155395
 Root      2 :     3.609405050233318   Change is   -0.000000000002893
 Root      3 :     4.233894526766039   Change is   -0.000000000031668
 Root      4 :     4.956420461548916   Change is   -0.000000010249956
 Root      5 :     5.394311589616858   Change is   -0.000000013457968
 Root      6 :     6.131447490700627   Change is   -0.000000052218717
 Iteration    10 Dimension   106 NMult   100 NNew      6
 CISAX will form     6 AO SS matrices at one time.
 NMat=     6 NSing=     6 JSym2X= 0.
 Root      1 has converged.
 Root      2 has converged.
 Root      3 has converged.
 Root      4 not converged, maximum delta is    0.000003497324213
 Root      5 not converged, maximum delta is    0.000005898915763
 Root      6 not converged, maximum delta is    0.000014782000492
 Excitation Energies [eV] at current iteration:
 Root      1 :     3.222813427934938   Change is   -0.000000000001505
 Root      2 :     3.609405050232817   Change is   -0.000000000000501
 Root      3 :     4.233894526765495   Change is   -0.000000000000543
 Root      4 :     4.956420460656768   Change is   -0.000000000892148
 Root      5 :     5.394311588117305   Change is   -0.000000001499553
 Root      6 :     6.131447484825223   Change is   -0.000000005875405
 Iteration    11 Dimension   112 NMult   106 NNew      6
 CISAX will form     6 AO SS matrices at one time.
 NMat=     6 NSing=     6 JSym2X= 0.
 Root      1 has converged.
 Root      2 has converged.
 Root      3 has converged.
 Root      4 has converged.
 Root      5 not converged, maximum delta is    0.000001186027371
 Root      6 not converged, maximum delta is    0.000002955014247
 Excitation Energies [eV] at current iteration:
 Root      1 :     3.222813427934606   Change is   -0.000000000000332
 Root      2 :     3.609405050232771   Change is   -0.000000000000046
 Root      3 :     4.233894526765340   Change is   -0.000000000000156
 Root      4 :     4.956420460595648   Change is   -0.000000000061120
 Root      5 :     5.394311588003876   Change is   -0.000000000113429
 Root      6 :     6.131447484267430   Change is   -0.000000000557793
 Iteration    12 Dimension   116 NMult   112 NNew      4
 CISAX will form     4 AO SS matrices at one time.
 NMat=     4 NSing=     4 JSym2X= 0.
 Root      1 has converged.
 Root      2 has converged.
 Root      3 has converged.
 Root      4 has converged.
 Root      5 has converged.
 Root      6 has converged.
 Excitation Energies [eV] at current iteration:
 Root      1 :     3.222813427934530   Change is   -0.000000000000077
 Root      2 :     3.609405050232589   Change is   -0.000000000000182
 Root      3 :     4.233894526765224   Change is   -0.000000000000116
 Root      4 :     4.956420460593193   Change is   -0.000000000002455
 Root      5 :     5.394311587996790   Change is   -0.000000000007086
 Root      6 :     6.131447484212338   Change is   -0.000000000055091
 Convergence achieved on expansion vectors.
 ***********************************************************************
 Excited states from <AA,BB:AA,BB> singles matrix:
 ***********************************************************************
 
 1PDM for each excited state written to RWF  633
 Ground to excited state transition densities written to RWF  633
 Ground to excited state transition electric dipole moments (Au):
       state          X           Y           Z        Dip. S.      Osc.
         1        -1.7778     -0.0976     -0.0476      3.1725      0.2505
         2         0.2359      0.0344      0.0522      0.0596      0.0053
         3         0.0123     -0.1209      0.0422      0.0166      0.0017
         4         0.0498     -2.0373      0.0896      4.1610      0.5053
         5        -0.3100      1.2698     -0.0099      1.7085      0.2258
         6        -0.0440      0.1408      0.0251      0.0224      0.0034
 Ground to excited state transition velocity dipole moments (Au):
       state          X           Y           Z        Dip. S.      Osc.
         1         0.2041      0.0100      0.0057      0.0418      0.2353
         2        -0.0311     -0.0041     -0.0054      0.0010      0.0051
         3        -0.0020      0.0179     -0.0029      0.0003      0.0014
         4        -0.0130      0.3528     -0.0131      0.1248      0.4567
         5         0.0583     -0.2493      0.0026      0.0655      0.2204
         6         0.0109     -0.0288     -0.0253      0.0016      0.0047
 Ground to excited state transition magnetic dipole moments (Au):
       state          X           Y           Z
         1         0.0914      0.0195     -1.4026
         2         0.7364      0.2652      0.3312
         3        -0.0074     -0.9468     -0.0709
         4         0.0565      0.0850     -0.4259
         5        -0.1582     -0.0914      0.2091
         6         0.0478      0.0144     -0.0207
 Ground to excited state transition velocity quadrupole moments (Au):
       state          XX          YY          ZZ          XY          XZ          YZ
         1         0.3726     -0.1535     -0.0084     -0.5176      0.0447     -0.0084
         2        -0.0568     -0.0021      0.0004      0.0854     -0.0436      0.0436
         3        -0.0253      0.0096     -0.0158     -0.0300      0.0758      0.0053
         4        -1.5108      0.3477      0.0286     -0.2752     -0.0721     -0.0237
         5         0.5575     -0.4011     -0.0325     -0.0454      0.0566     -0.0542
         6        -0.2343     -0.1566      0.1237     -0.0199     -0.0268      0.1054
 <0|del|b> * <b|rxdel|0> + <0|del|b> * <b|delr+rdel|0>
 Rotatory Strengths (R) in cgs (10**-40 erg-esu-cm/Gauss)
       state          XX          YY          ZZ    R(velocity)    E-M Angle
         1       -33.4542     35.5006     62.7943     21.6136       87.83
         2        -9.3478    -68.1762    -59.8690    -45.7977      162.32
         3       -41.0098      0.2770    -35.4322    -25.3883      165.04
         4       125.4515      3.0098      6.7671     45.0761       76.99
         5        66.5681    -20.8623      4.6999     16.8019       78.53
         6        -0.2491      2.6458     -0.4196      0.6591       72.97
 1/2[<0|r|b>*<b|rxdel|0> + (<0|rxdel|b>*<b|r|0>)*]
 Rotatory Strengths (R) in cgs (10**-40 erg-esu-cm/Gauss)
       state          XX          YY          ZZ     R(length)
         1       114.9482      1.3429    -47.2528     23.0128
         2      -122.8704     -6.4472    -12.2250    -47.1808
         3         0.0645    -80.9782      2.1134    -26.2668
         4        -1.9884    122.4296     26.9791     49.1401
         5       -34.6757     82.0863      1.4653     16.2920
         6         1.4864     -1.4296      0.3674      0.1414
  1/2[<0|del|b>*<b|r|0> + (<0|r|b>*<b|del|0>)*] (Au)
       state          X           Y           Z        Dip. S.   Osc.(frdel)
         1        -0.3629     -0.0010     -0.0003      0.3642      0.2428
         2        -0.0073     -0.0001     -0.0003      0.0078      0.0052
         3        -0.0000     -0.0022     -0.0001      0.0023      0.0015
         4        -0.0006     -0.7187     -0.0012      0.7205      0.4803
         5        -0.0181     -0.3165     -0.0000      0.3346      0.2231
         6        -0.0005     -0.0041     -0.0006      0.0052      0.0034

 Excitation energies and oscillator strengths:
 
 Excited State   1:      Singlet-A      3.2228 eV  384.71 nm  f=0.2505  <S**2>=0.000
      52 -> 53         0.69691
 
 Excited State   2:      Singlet-A      3.6094 eV  343.50 nm  f=0.0053  <S**2>=0.000
      51 -> 53         0.61579
      51 -> 54        -0.29175
 This state for optimization and/or second-order correction.
 Total Energy, E(TD-HF/TD-DFT) =  -633.190041075    
 Copying the excited state density for this state as the 1-particle RhoCI density.
 
 Excited State   3:      Singlet-A      4.2339 eV  292.84 nm  f=0.0017  <S**2>=0.000
      50 -> 53         0.52272
      50 -> 54         0.40405
      50 -> 58         0.11819
      51 -> 54         0.11313
 
 Excited State   4:      Singlet-A      4.9564 eV  250.15 nm  f=0.5053  <S**2>=0.000
      49 -> 53        -0.16736
      52 -> 54         0.67931
 
 Excited State   5:      Singlet-A      5.3943 eV  229.84 nm  f=0.2258  <S**2>=0.000
      49 -> 53         0.65881
      50 -> 53        -0.15526
      52 -> 54         0.16659
 
 Excited State   6:      Singlet-A      6.1314 eV  202.21 nm  f=0.0034  <S**2>=0.000
      52 -> 55         0.66317
      52 -> 56         0.12631
      52 -> 62        -0.10487
 SavETr:  write IOETrn=   770 NScale= 10 NData=  16 NLR=1 NState=    6 LETran=     118.
 The selected state is a singlet.
 CISGrd: IGrad=1 NXY=2 DFT=T
 CISAX will form     1 AO SS matrices at one time.
 NMat=     1 NSing=     1 JSym2X= 0.
 Leave Link  914 at Sat Jan 24 19:24:17 2026, MaxMem=  2147483648 cpu:            8137.6 elap:             510.5
 (Enter /data/home/wyx/g16/l1002.exe)
 Minotr:  Closed shell wavefunction.
          Computing CIS/TDA/TD derivatives.
          Using Z-Vector for PSCF gradient.
          Skipping F1 and S1 gradient terms here.
 NEqPCM:  Using equilibrium solvation (IEInf=0, Eps=  78.3553, EpsInf=   1.7778)
          Frozen-core window.
          Direct CPHF calculation.
          Differentiating once with respect to electric field.
                with respect to dipole field.
          Electric field/nuclear overlap derivatives assumed to be zero.
          Requested convergence is 1.0D-10 RMS, and 1.0D-09 maximum.
          NewPWx=F KeepS1=T KeepF1=T KeepIn=T MapXYZ=F SortEE=F KeepMc=T.
 Two-electron integral symmetry used by symmetrizing perturbed Fock matrices.
          MDV=    2147483648 using IRadAn=       5.
          Solving linear equations separately, MaxMat=     384.
          There are     1 degrees of freedom in the 1st order CPHF.  IDoFFX=0 NUNeed=     1.
 FoFJK:  IHMeth= 1 ICntrl=       0 DoSepK=T KAlg= 0 I1Cent=           0 FoldK=F
 IRaf=         1 NMat=       1 IRICut=       1 DoRegI=T DoRafI=F ISym2E=-1 IDoP0=0 IntGTp=1.
 FoFCou: FMM=F IPFlag=           0 FMFlag=      100000 FMFlg1=           0
         NFxFlg=           0 DoJE=T BraDBF=F KetDBF=F FulRan=T
         wScrn=  0.000000 ICntrl=       500 IOpCl=  0 I1Cent=           0 NGrid=           0
         NMat0=    1 NMatS0=      1 NMatT0=    0 NMatD0=    1 NMtDS0=    0 NMtDT0=    0
 Petite list used in FoFCou.
 LinEq1:  Iter=  0 NonCon=     1 RMS=9.33D-03 Max=4.07D-01 NDo=     1
 AX will form     1 AO Fock derivatives at one time.
 LinEq1:  Iter=  1 NonCon=     1 RMS=2.34D-03 Max=8.41D-02 NDo=     1
 LinEq1:  Iter=  2 NonCon=     1 RMS=1.52D-03 Max=8.01D-02 NDo=     1
 LinEq1:  Iter=  3 NonCon=     1 RMS=6.45D-04 Max=3.59D-02 NDo=     1
 LinEq1:  Iter=  4 NonCon=     1 RMS=3.30D-04 Max=1.50D-02 NDo=     1
 LinEq1:  Iter=  5 NonCon=     1 RMS=1.72D-04 Max=8.01D-03 NDo=     1
 LinEq1:  Iter=  6 NonCon=     1 RMS=8.28D-05 Max=2.57D-03 NDo=     1
 LinEq1:  Iter=  7 NonCon=     1 RMS=4.83D-05 Max=2.01D-03 NDo=     1
 LinEq1:  Iter=  8 NonCon=     1 RMS=2.06D-05 Max=5.53D-04 NDo=     1
 LinEq1:  Iter=  9 NonCon=     1 RMS=1.52D-05 Max=6.88D-04 NDo=     1
 LinEq1:  Iter= 10 NonCon=     1 RMS=6.15D-06 Max=1.03D-04 NDo=     1
 LinEq1:  Iter= 11 NonCon=     1 RMS=3.79D-06 Max=1.43D-04 NDo=     1
 LinEq1:  Iter= 12 NonCon=     1 RMS=1.37D-06 Max=4.26D-05 NDo=     1
 LinEq1:  Iter= 13 NonCon=     1 RMS=6.60D-07 Max=2.50D-05 NDo=     1
 LinEq1:  Iter= 14 NonCon=     1 RMS=2.55D-07 Max=1.24D-05 NDo=     1
 LinEq1:  Iter= 15 NonCon=     1 RMS=1.33D-07 Max=5.72D-06 NDo=     1
 LinEq1:  Iter= 16 NonCon=     1 RMS=5.66D-08 Max=1.92D-06 NDo=     1
 LinEq1:  Iter= 17 NonCon=     1 RMS=1.75D-08 Max=3.23D-07 NDo=     1
 LinEq1:  Iter= 18 NonCon=     1 RMS=7.36D-09 Max=9.56D-08 NDo=     1
 LinEq1:  Iter= 19 NonCon=     1 RMS=2.00D-09 Max=3.69D-08 NDo=     1
 LinEq1:  Iter= 20 NonCon=     1 RMS=5.06D-10 Max=9.18D-09 NDo=     1
 LinEq1:  Iter= 21 NonCon=     1 RMS=2.15D-10 Max=5.73D-09 NDo=     1
 LinEq1:  Iter= 22 NonCon=     1 RMS=8.33D-11 Max=3.21D-09 NDo=     1
 LinEq1:  Iter= 23 NonCon=     1 RMS=2.58D-11 Max=1.12D-09 NDo=     1
 LinEq1:  Iter= 24 NonCon=     0 RMS=1.28D-11 Max=5.15D-10 NDo=     1
 Linear equations converged to 1.000D-10 1.000D-09 after    24 iterations.
 PCM Corrected Linear-Response - Equilibrium solvation:
 Corrected transition energy               =    3.5117          eV
 Total energy after correction             = -633.193630421     a.u.
 NEqPCM:  Using non-equilibrium solvation (IEInf=1, Eps=  78.3553, EpsInf=   1.7778)
 Inv3:  Mode=1 IEnd=    13293075.
 Iteration    1 A*A^-1 deviation from unit magnitude is 3.22D-15 for    728.
 Iteration    1 A*A^-1 deviation from orthogonality  is 1.73D-15 for   1772    225.
 Iteration    1 A^-1*A deviation from unit magnitude is 2.89D-15 for   1525.
 Iteration    1 A^-1*A deviation from orthogonality  is 1.70D-15 for   1783    241.
 NEqSol: Computing the dynamic-inertial partition of the PCM polarization charges.
 End of Minotr F.D. properties file   721 does not exist.
 End of Minotr F.D. properties file   722 does not exist.
 End of Minotr F.D. properties file   788 does not exist.
 Leave Link 1002 at Sat Jan 24 19:26:22 2026, MaxMem=  2147483648 cpu:            1978.8 elap:             124.5
 (Enter /data/home/wyx/g16/l601.exe)
 Copying SCF densities to generalized density rwf, IOpCl= 0 IROHF=0.

 **********************************************************************

            Population analysis using the CI density.

 **********************************************************************

 Orbital symmetries:
       Occupied  (A) (A) (A) (A) (A) (A) (A) (A) (A) (A) (A) (A)
                 (A) (A) (A) (A) (A) (A) (A) (A) (A) (A) (A) (A)
                 (A) (A) (A) (A) (A) (A) (A) (A) (A) (A) (A) (A)
                 (A) (A) (A) (A) (A) (A) (A) (A) (A) (A) (A) (A)
                 (A) (A) (A) (A)
       Virtual   (A) (A) (A) (A) (A) (A) (A) (A) (A) (A) (A) (A)
                 (A) (A) (A) (A) (A) (A) (A) (A) (A) (A) (A) (A)
                 (A) (A) (A) (A) (A) (A) (A) (A) (A) (A) (A) (A)
                 (A) (A) (A) (A) (A) (A) (A) (A) (A) (A) (A) (A)
                 (A) (A) (A) (A) (A) (A) (A) (A) (A) (A) (A) (A)
                 (A) (A) (A) (A) (A) (A) (A) (A) (A) (A) (A) (A)
                 (A) (A) (A) (A) (A) (A) (A) (A) (A) (A) (A) (A)
                 (A) (A) (A) (A) (A) (A) (A) (A) (A) (A) (A) (A)
                 (A) (A) (A) (A) (A) (A) (A) (A) (A) (A) (A) (A)
                 (A) (A) (A) (A) (A) (A) (A) (A) (A) (A) (A) (A)
                 (A) (A) (A) (A) (A) (A) (A) (A) (A) (A) (A) (A)
                 (A) (A) (A) (A) (A) (A) (A) (A) (A) (A) (A) (A)
                 (A) (A) (A) (A) (A) (A) (A) (A) (A) (A) (A) (A)
                 (A) (A) (A) (A) (A) (A) (A) (A) (A) (A) (A) (A)
                 (A) (A) (A) (A) (A) (A) (A) (A) (A) (A) (A) (A)
                 (A) (A) (A) (A) (A) (A) (A) (A) (A) (A) (A) (A)
                 (A) (A) (A) (A) (A) (A) (A) (A) (A) (A) (A) (A)
                 (A) (A) (A) (A) (A) (A) (A) (A) (A) (A) (A) (A)
                 (A) (A) (A) (A) (A) (A) (A) (A) (A) (A) (A) (A)
                 (A) (A) (A) (A) (A) (A) (A) (A) (A) (A) (A) (A)
                 (A) (A) (A) (A) (A) (A) (A) (A) (A) (A) (A) (A)
                 (A) (A) (A) (A) (A) (A) (A) (A) (A) (A) (A) (A)
                 (A) (A) (A) (A) (A) (A) (A) (A) (A) (A) (A) (A)
                 (A) (A) (A) (A) (A) (A) (A) (A) (A) (A) (A) (A)
                 (A) (A) (A) (A) (A) (A) (A) (A) (A) (A) (A) (A)
                 (A) (A) (A) (A)
 The electronic state is 1-A.
 Alpha  occ. eigenvalues --  -19.17831 -19.16808 -14.44393 -10.33396 -10.33369
 Alpha  occ. eigenvalues --  -10.32384 -10.32319 -10.25691 -10.25220 -10.25121
 Alpha  occ. eigenvalues --  -10.25086 -10.24311 -10.24084 -10.23870  -1.11822
 Alpha  occ. eigenvalues --   -1.09371  -1.07756  -0.91518  -0.90613  -0.83927
 Alpha  occ. eigenvalues --   -0.82491  -0.81475  -0.78768  -0.74302  -0.71568
 Alpha  occ. eigenvalues --   -0.69173  -0.62088  -0.58484  -0.56952  -0.55154
 Alpha  occ. eigenvalues --   -0.54699  -0.54238  -0.52459  -0.51833  -0.50666
 Alpha  occ. eigenvalues --   -0.49701  -0.49319  -0.49053  -0.48425  -0.48246
 Alpha  occ. eigenvalues --   -0.46632  -0.45324  -0.44578  -0.43602  -0.42966
 Alpha  occ. eigenvalues --   -0.42435  -0.41825  -0.40950  -0.33008  -0.32284
 Alpha  occ. eigenvalues --   -0.30958  -0.26342
 Alpha virt. eigenvalues --   -0.03330   0.01886   0.06585   0.08378   0.08786
 Alpha virt. eigenvalues --    0.10219   0.10709   0.11859   0.12703   0.13481
 Alpha virt. eigenvalues --    0.14320   0.15544   0.15632   0.16540   0.16824
 Alpha virt. eigenvalues --    0.17495   0.17640   0.17926   0.18353   0.19101
 Alpha virt. eigenvalues --    0.19909   0.20583   0.22561   0.23215   0.24097
 Alpha virt. eigenvalues --    0.24443   0.24804   0.25492   0.25802   0.26333
 Alpha virt. eigenvalues --    0.27484   0.27985   0.28641   0.29492   0.30070
 Alpha virt. eigenvalues --    0.31343   0.31887   0.33086   0.33776   0.34868
 Alpha virt. eigenvalues --    0.35151   0.35937   0.37031   0.37488   0.37831
 Alpha virt. eigenvalues --    0.39837   0.41096   0.41501   0.42287   0.43193
 Alpha virt. eigenvalues --    0.44150   0.44829   0.45435   0.46280   0.46365
 Alpha virt. eigenvalues --    0.46916   0.48062   0.48109   0.48718   0.48816
 Alpha virt. eigenvalues --    0.49498   0.50065   0.50721   0.51468   0.51823
 Alpha virt. eigenvalues --    0.52212   0.52824   0.53203   0.53825   0.54223
 Alpha virt. eigenvalues --    0.54768   0.55732   0.55822   0.57118   0.57980
 Alpha virt. eigenvalues --    0.58753   0.59470   0.59581   0.61813   0.62483
 Alpha virt. eigenvalues --    0.63733   0.64599   0.66230   0.67324   0.67957
 Alpha virt. eigenvalues --    0.69111   0.70093   0.70926   0.71449   0.72445
 Alpha virt. eigenvalues --    0.73405   0.74826   0.76044   0.77031   0.78653
 Alpha virt. eigenvalues --    0.79668   0.80561   0.82260   0.86597   0.86975
 Alpha virt. eigenvalues --    0.90256   0.90531   0.97323   1.01388   1.22724
 Alpha virt. eigenvalues --    1.23975   1.26444   1.27616   1.29842   1.30813
 Alpha virt. eigenvalues --    1.32666   1.33174   1.34202   1.35733   1.36362
 Alpha virt. eigenvalues --    1.37480   1.37641   1.38989   1.39554   1.39909
 Alpha virt. eigenvalues --    1.40230   1.40854   1.41119   1.41666   1.41994
 Alpha virt. eigenvalues --    1.42881   1.43697   1.44546   1.45203   1.46198
 Alpha virt. eigenvalues --    1.48263   1.49603   1.49849   1.50928   1.51578
 Alpha virt. eigenvalues --    1.51988   1.52466   1.53827   1.56213   1.57402
 Alpha virt. eigenvalues --    1.58820   1.60186   1.60447   1.61165   1.61912
 Alpha virt. eigenvalues --    1.62800   1.63228   1.64352   1.64906   1.65106
 Alpha virt. eigenvalues --    1.66209   1.66761   1.66893   1.68354   1.68852
 Alpha virt. eigenvalues --    1.69026   1.69595   1.70759   1.71705   1.73410
 Alpha virt. eigenvalues --    1.73761   1.74193   1.75794   1.76561   1.80267
 Alpha virt. eigenvalues --    1.80953   1.83097   1.84565   1.85221   1.86125
 Alpha virt. eigenvalues --    1.86253   1.86651   1.88736   1.89861   1.90219
 Alpha virt. eigenvalues --    1.91623   1.93382   1.96765   1.98540   2.01265
 Alpha virt. eigenvalues --    2.01846   2.04595   2.05596   2.07125   2.09841
 Alpha virt. eigenvalues --    2.10859   2.13911   2.14504   2.18839   2.20130
 Alpha virt. eigenvalues --    2.20928   2.22921   2.23532   2.24517   2.25303
 Alpha virt. eigenvalues --    2.27534   2.29082   2.29886   2.31711   2.32659
 Alpha virt. eigenvalues --    2.34166   2.34930   2.36275   2.37941   2.39096
 Alpha virt. eigenvalues --    2.40431   2.41008   2.41697   2.43873   2.45427
 Alpha virt. eigenvalues --    2.45933   2.47546   2.49196   2.49702   2.51389
 Alpha virt. eigenvalues --    2.52905   2.53769   2.54556   2.56236   2.57385
 Alpha virt. eigenvalues --    2.58369   2.59863   2.61076   2.62090   2.63118
 Alpha virt. eigenvalues --    2.64012   2.65729   2.66865   2.67324   2.68398
 Alpha virt. eigenvalues --    2.68666   2.71887   2.73139   2.74182   2.74891
 Alpha virt. eigenvalues --    2.76508   2.76739   2.77444   2.78355   2.78518
 Alpha virt. eigenvalues --    2.80223   2.81158   2.83291   2.84394   2.85452
 Alpha virt. eigenvalues --    2.85668   2.87399   2.89187   2.89591   2.92790
 Alpha virt. eigenvalues --    2.98032   2.98404   2.99083   3.03992   3.09113
 Alpha virt. eigenvalues --    3.10343   3.11247   3.13599   3.19258   3.20572
 Alpha virt. eigenvalues --    3.21242   3.22029   3.23902   3.25113   3.25983
 Alpha virt. eigenvalues --    3.27692   3.30085   3.31369   3.35275   3.37515
 Alpha virt. eigenvalues --    3.39250   3.39444   3.40252   3.40699   3.41211
 Alpha virt. eigenvalues --    3.41918   3.44179   3.45332   3.46802   3.49556
 Alpha virt. eigenvalues --    3.50875   3.51790   3.54726   3.58090   3.59395
 Alpha virt. eigenvalues --    3.61425   3.91412   3.99774   4.30475   4.35169
 Alpha virt. eigenvalues --   21.63954  21.76852  22.05376  22.10283  22.11672
 Alpha virt. eigenvalues --   22.12757  22.15864  22.18543  22.20948  22.26344
 Alpha virt. eigenvalues --   22.31057  31.93158  43.63802  43.66128
          Condensed to atoms (all electrons):
               1          2          3          4          5          6
     1  O    7.974362   0.000000  -0.000217   0.000018   0.018393   0.016506
     2  O    0.000000   8.032737   0.000797   0.000030  -0.073006   0.000317
     3  N   -0.000217   0.000797   6.369387   0.372924  -0.077182   0.422468
     4  H    0.000018   0.000030   0.372924   0.404252   0.012761  -0.043511
     5  C    0.018393  -0.073006  -0.077182   0.012761   6.039565  -0.076609
     6  C    0.016506   0.000317   0.422468  -0.043511  -0.076609   5.559089
     7  C   -0.000151   0.016352   0.289949  -0.045353   0.273203  -0.103375
     8  C   -0.000229   0.255878   0.012508  -0.001457   0.390149   0.023643
     9  C   -0.016453   0.013535   0.011830   0.000584  -0.544471  -0.114097
    10  H    0.005849  -0.000181   0.003189   0.000030  -0.017284  -0.009830
    11  H    0.013712  -0.000222  -0.001091   0.000004  -0.120329   0.022224
    12  C   -0.253218  -0.001395  -0.116931   0.018494   0.245944  -0.139524
    13  C    0.737032   0.000030  -0.001317   0.000531   0.073270   0.145072
    14  C   -0.000013  -0.014864  -0.047143   0.000755  -0.016981  -0.004493
    15  H    0.000000  -0.000544   0.002905  -0.000029   0.010563   0.000391
    16  H    0.000000  -0.001154   0.001691   0.000242  -0.021277   0.002534
    17  H    0.000000   0.017194   0.004447   0.000740   0.028741  -0.000389
    18  C   -0.000276  -0.054738  -0.000238   0.000016   0.008823  -0.002408
    19  H   -0.000002   0.005998   0.000003  -0.000001  -0.003517   0.000133
    20  H    0.000001   0.003408  -0.000021  -0.000000  -0.011652  -0.000019
    21  H    0.000547   0.003271   0.000019  -0.000000   0.003303  -0.000624
    22  C   -0.118510   0.000000   0.000244   0.000115   0.002035  -0.009761
    23  H    0.004402  -0.000000   0.000026  -0.000052  -0.000442  -0.028521
    24  H    0.002187  -0.000000   0.000067  -0.000017  -0.000079   0.010845
    25  H    0.010292   0.000000   0.000029  -0.000003  -0.000130  -0.001522
    26  C    0.000878   0.000006  -0.030112  -0.009676  -0.003004   0.188728
    27  H   -0.000201   0.000000   0.000573   0.000898  -0.000110  -0.050811
    28  H   -0.000036   0.000000  -0.003736   0.000570   0.000728  -0.035643
    29  H    0.000023  -0.000000   0.002654   0.001826  -0.000343  -0.050795
               7          8          9         10         11         12
     1  O   -0.000151  -0.000229  -0.016453   0.005849   0.013712  -0.253218
     2  O    0.016352   0.255878   0.013535  -0.000181  -0.000222  -0.001395
     3  N    0.289949   0.012508   0.011830   0.003189  -0.001091  -0.116931
     4  H   -0.045353  -0.001457   0.000584   0.000030   0.000004   0.018494
     5  C    0.273203   0.390149  -0.544471  -0.017284  -0.120329   0.245944
     6  C   -0.103375   0.023643  -0.114097  -0.009830   0.022224  -0.139524
     7  C    5.542196  -0.121582  -0.058527  -0.009359   0.014998  -0.045535
     8  C   -0.121582   5.368616  -0.015772  -0.008743  -0.002205  -0.037398
     9  C   -0.058527  -0.015772   6.541349   0.383567   0.545132  -0.212533
    10  H   -0.009359  -0.008743   0.383567   0.558575  -0.041791  -0.009883
    11  H    0.014998  -0.002205   0.545132  -0.041791   0.515990  -0.105764
    12  C   -0.045535  -0.037398  -0.212533  -0.009883  -0.105764   7.588963
    13  C    0.015935  -0.004634  -0.253669  -0.002620   0.000848  -0.469209
    14  C    0.184721  -0.069480   0.021300  -0.000922   0.000219   0.003140
    15  H   -0.059903   0.003167  -0.003652   0.000174  -0.000017   0.001555
    16  H   -0.036487   0.007450   0.001659  -0.000074   0.000078  -0.002246
    17  H   -0.058828  -0.047904   0.003599  -0.000037  -0.000039  -0.000835
    18  C    0.008956   0.212521  -0.019502  -0.008806  -0.004120   0.008239
    19  H    0.003553  -0.043410   0.000149  -0.000328   0.000738  -0.001595
    20  H   -0.004077  -0.052247  -0.002113   0.000964  -0.000839   0.002065
    21  H    0.004266  -0.057436  -0.001169   0.000016  -0.006149   0.001171
    22  C    0.000687  -0.000064   0.009252   0.001723   0.000463  -0.298869
    23  H   -0.000034   0.000003   0.002754  -0.000149  -0.000026   0.057649
    24  H   -0.000017  -0.000001  -0.002605   0.000172  -0.000128  -0.003605
    25  H    0.000015   0.000001   0.000183  -0.000075  -0.000081   0.028334
    26  C    0.003422   0.000743   0.027444  -0.000645   0.000031  -0.084908
    27  H   -0.000984   0.000012   0.001286  -0.000094   0.000022   0.000713
    28  H   -0.000251  -0.000041  -0.001911  -0.000003   0.000048  -0.017983
    29  H    0.003868  -0.000010  -0.001137   0.000066  -0.000010   0.022578
              13         14         15         16         17         18
     1  O    0.737032  -0.000013   0.000000   0.000000   0.000000  -0.000276
     2  O    0.000030  -0.014864  -0.000544  -0.001154   0.017194  -0.054738
     3  N   -0.001317  -0.047143   0.002905   0.001691   0.004447  -0.000238
     4  H    0.000531   0.000755  -0.000029   0.000242   0.000740   0.000016
     5  C    0.073270  -0.016981   0.010563  -0.021277   0.028741   0.008823
     6  C    0.145072  -0.004493   0.000391   0.002534  -0.000389  -0.002408
     7  C    0.015935   0.184721  -0.059903  -0.036487  -0.058828   0.008956
     8  C   -0.004634  -0.069480   0.003167   0.007450  -0.047904   0.212521
     9  C   -0.253669   0.021300  -0.003652   0.001659   0.003599  -0.019502
    10  H   -0.002620  -0.000922   0.000174  -0.000074  -0.000037  -0.008806
    11  H    0.000848   0.000219  -0.000017   0.000078  -0.000039  -0.004120
    12  C   -0.469209   0.003140   0.001555  -0.002246  -0.000835   0.008239
    13  C    5.510126  -0.000090   0.000024  -0.000049   0.000008   0.000805
    14  C   -0.000090   5.216936   0.414701   0.387938   0.426095   0.001861
    15  H    0.000024   0.414701   0.558398  -0.042817  -0.032132   0.000066
    16  H   -0.000049   0.387938  -0.042817   0.551413  -0.012027  -0.000109
    17  H    0.000008   0.426095  -0.032132  -0.012027   0.498489  -0.001296
    18  C    0.000805   0.001861   0.000066  -0.000109  -0.001296   5.077962
    19  H   -0.000037  -0.000895  -0.000030   0.000060   0.000688   0.379566
    20  H   -0.000017   0.000365   0.000019  -0.000080  -0.000323   0.416802
    21  H    0.001005  -0.000157  -0.000007   0.000015   0.000058   0.419002
    22  C    0.318574   0.000007   0.000003  -0.000004  -0.000000   0.000008
    23  H   -0.081273   0.000001  -0.000000   0.000001   0.000000   0.000002
    24  H   -0.033835  -0.000001   0.000000  -0.000000  -0.000000  -0.000001
    25  H   -0.047932   0.000000  -0.000000   0.000000  -0.000000   0.000000
    26  C   -0.054861   0.000645  -0.000675   0.000369   0.000082  -0.000009
    27  H   -0.007934   0.000079  -0.000029   0.000017   0.000001   0.000001
    28  H    0.007098  -0.000100   0.000041  -0.000066  -0.000003  -0.000001
    29  H    0.000081   0.000029   0.000105  -0.000039  -0.000008   0.000000
              19         20         21         22         23         24
     1  O   -0.000002   0.000001   0.000547  -0.118510   0.004402   0.002187
     2  O    0.005998   0.003408   0.003271   0.000000  -0.000000  -0.000000
     3  N    0.000003  -0.000021   0.000019   0.000244   0.000026   0.000067
     4  H   -0.000001  -0.000000  -0.000000   0.000115  -0.000052  -0.000017
     5  C   -0.003517  -0.011652   0.003303   0.002035  -0.000442  -0.000079
     6  C    0.000133  -0.000019  -0.000624  -0.009761  -0.028521   0.010845
     7  C    0.003553  -0.004077   0.004266   0.000687  -0.000034  -0.000017
     8  C   -0.043410  -0.052247  -0.057436  -0.000064   0.000003  -0.000001
     9  C    0.000149  -0.002113  -0.001169   0.009252   0.002754  -0.002605
    10  H   -0.000328   0.000964   0.000016   0.001723  -0.000149   0.000172
    11  H    0.000738  -0.000839  -0.006149   0.000463  -0.000026  -0.000128
    12  C   -0.001595   0.002065   0.001171  -0.298869   0.057649  -0.003605
    13  C   -0.000037  -0.000017   0.001005   0.318574  -0.081273  -0.033835
    14  C   -0.000895   0.000365  -0.000157   0.000007   0.000001  -0.000001
    15  H   -0.000030   0.000019  -0.000007   0.000003  -0.000000   0.000000
    16  H    0.000060  -0.000080   0.000015  -0.000004   0.000001  -0.000000
    17  H    0.000688  -0.000323   0.000058  -0.000000   0.000000  -0.000000
    18  C    0.379566   0.416802   0.419002   0.000008   0.000002  -0.000001
    19  H    0.574517  -0.052977  -0.019751  -0.000001   0.000000  -0.000000
    20  H   -0.052977   0.560973  -0.027689   0.000002  -0.000000   0.000000
    21  H   -0.019751  -0.027689   0.495964   0.000037  -0.000001  -0.000001
    22  C   -0.000001   0.000002   0.000037   5.446050   0.388599   0.404438
    23  H    0.000000  -0.000000  -0.000001   0.388599   0.546345  -0.028771
    24  H   -0.000000   0.000000  -0.000001   0.404438  -0.028771   0.500968
    25  H    0.000000  -0.000000  -0.000000   0.380275  -0.020961  -0.008712
    26  C    0.000002  -0.000003  -0.000006  -0.037456   0.018319  -0.015372
    27  H    0.000000  -0.000000   0.000000   0.009533  -0.008585  -0.002023
    28  H   -0.000000   0.000000  -0.000000  -0.011882  -0.002511   0.001635
    29  H   -0.000000   0.000000  -0.000000   0.001851   0.000714   0.000199
              25         26         27         28         29
     1  O    0.010292   0.000878  -0.000201  -0.000036   0.000023
     2  O    0.000000   0.000006   0.000000   0.000000  -0.000000
     3  N    0.000029  -0.030112   0.000573  -0.003736   0.002654
     4  H   -0.000003  -0.009676   0.000898   0.000570   0.001826
     5  C   -0.000130  -0.003004  -0.000110   0.000728  -0.000343
     6  C   -0.001522   0.188728  -0.050811  -0.035643  -0.050795
     7  C    0.000015   0.003422  -0.000984  -0.000251   0.003868
     8  C    0.000001   0.000743   0.000012  -0.000041  -0.000010
     9  C    0.000183   0.027444   0.001286  -0.001911  -0.001137
    10  H   -0.000075  -0.000645  -0.000094  -0.000003   0.000066
    11  H   -0.000081   0.000031   0.000022   0.000048  -0.000010
    12  C    0.028334  -0.084908   0.000713  -0.017983   0.022578
    13  C   -0.047932  -0.054861  -0.007934   0.007098   0.000081
    14  C    0.000000   0.000645   0.000079  -0.000100   0.000029
    15  H   -0.000000  -0.000675  -0.000029   0.000041   0.000105
    16  H    0.000000   0.000369   0.000017  -0.000066  -0.000039
    17  H   -0.000000   0.000082   0.000001  -0.000003  -0.000008
    18  C    0.000000  -0.000009   0.000001  -0.000001   0.000000
    19  H    0.000000   0.000002   0.000000  -0.000000  -0.000000
    20  H   -0.000000  -0.000003  -0.000000   0.000000   0.000000
    21  H   -0.000000  -0.000006   0.000000  -0.000000  -0.000000
    22  C    0.380275  -0.037456   0.009533  -0.011882   0.001851
    23  H   -0.020961   0.018319  -0.008585  -0.002511   0.000714
    24  H   -0.008712  -0.015372  -0.002023   0.001635   0.000199
    25  H    0.505111   0.001936   0.000813   0.000085  -0.000051
    26  C    0.001936   5.257345   0.423968   0.429730   0.388177
    27  H    0.000813   0.423968   0.525211  -0.031827  -0.026303
    28  H    0.000085   0.429730  -0.031827   0.489343  -0.015911
    29  H   -0.000051   0.388177  -0.026303  -0.015911   0.521290
 Mulliken charges:
               1
     1  O   -0.394897
     2  O   -0.203448
     3  N   -0.217723
     4  H    0.285308
     5  C   -0.141063
     6  C    0.279982
     7  C    0.182342
     8  C    0.187920
     9  C   -0.316013
    10  H    0.156497
    11  H    0.168305
    12  C   -0.177412
    13  C    0.147036
    14  C   -0.503652
    15  H    0.147723
    16  H    0.162964
    17  H    0.173680
    18  C   -0.443122
    19  H    0.157135
    20  H    0.167458
    21  H    0.184317
    22  C   -0.487350
    23  H    0.152512
    24  H    0.174657
    25  H    0.152393
    26  C   -0.505096
    27  H    0.165775
    28  H    0.192628
    29  H    0.151144
 Sum of Mulliken charges =  -0.00000
 Mulliken charges with hydrogens summed into heavy atoms:
               1
     1  O   -0.394897
     2  O   -0.203448
     3  N    0.067586
     5  C   -0.141063
     6  C    0.279982
     7  C    0.182342
     8  C    0.187920
     9  C    0.008788
    12  C   -0.177412
    13  C    0.147036
    14  C   -0.019284
    18  C    0.065788
    22  C   -0.007788
    26  C    0.004450
 Electronic spatial extent (au):  <R**2>=           3212.6129
 Charge=              0.0000 electrons
 Dipole moment (field-independent basis, Debye):
    X=             -0.4874    Y=              6.8010    Z=             -0.0170  Tot=              6.8185
 Quadrupole moment (field-independent basis, Debye-Ang):
   XX=            -87.5716   YY=            -79.2776   ZZ=            -85.9687
   XY=            -15.9369   XZ=             -2.2454   YZ=             -0.7997
 Traceless Quadrupole moment (field-independent basis, Debye-Ang):
   XX=             -3.2990   YY=              4.9950   ZZ=             -1.6960
   XY=            -15.9369   XZ=             -2.2454   YZ=             -0.7997
 Octapole moment (field-independent basis, Debye-Ang**2):
  XXX=            -48.6539  YYY=             59.7414  ZZZ=              1.7893  XYY=             44.2125
  XXY=             22.3266  XXZ=             -3.2895  XZZ=             -1.9768  YZZ=             -1.2214
  YYZ=              0.6393  XYZ=              2.7859
 Hexadecapole moment (field-independent basis, Debye-Ang**3):
 XXXX=          -2907.8155 YYYY=          -1278.6375 ZZZZ=           -138.4095 XXXY=            -82.1934
 XXXZ=            -24.1012 YYYX=           -109.1794 YYYZ=            -13.0090 ZZZX=              3.4492
 ZZZY=              2.8318 XXYY=           -689.0032 XXZZ=           -491.7652 YYZZ=           -239.1981
 XXYZ=             -3.0747 YYXZ=             -6.6436 ZZXY=             -2.4649
 N-N= 8.992369137937D+02 E-N=-3.274643102984D+03  KE= 6.307286592686D+02
 No NMR shielding tensors so no spin-rotation constants.
 Leave Link  601 at Sat Jan 24 19:26:22 2026, MaxMem=  2147483648 cpu:               1.8 elap:               0.1
 (Enter /data/home/wyx/g16/l9999.exe)
 Electronic transition elements 
                 1             2             3             4             5 
      1  -0.633204D+03 -0.633190D+03 -0.633167D+03 -0.633141D+03 -0.633124D+03
      2   0.166268D+01 -0.219198D+00  0.375268D-01  0.660322D+00 -0.145650D+00
      3   0.529620D+00 -0.512834D-01 -0.118611D+00 -0.192827D+01  0.129802D+01
      4   0.357066D+00 -0.942986D-01 -0.328698D-01  0.824634D-01 -0.491135D-01
      5  -0.190480D+00  0.290394D-01 -0.477267D-02 -0.109823D+00  0.311415D-01
      6  -0.619047D-01  0.711190D-02  0.175624D-01  0.335354D+00 -0.253942D+00
      7  -0.411277D-01  0.109065D-01  0.158921D-02 -0.158723D-01  0.939787D-02
      8  -0.356823D+00 -0.705720D+00  0.313670D+00 -0.161603D+00  0.216357D+00
      9   0.193053D-01 -0.161259D-01 -0.882889D+00  0.699197D-01 -0.354160D-01
     10   0.135950D+01 -0.473339D+00  0.153935D+00  0.400998D+00 -0.170381D+00
     11  -0.386086D-01  0.143889D-01 -0.668861D-01 -0.138614D+01  0.385465D+00
     12   0.249858D+00 -0.672136D-01  0.259463D-01  0.301193D+00 -0.251346D+00
     13  -0.508491D-03 -0.572975D-02  0.941628D-02 -0.495753D-01 -0.101700D-01
     14   0.550791D+00 -0.712235D-01  0.884455D-02 -0.391888D+00  0.327704D+00
     15   0.199989D-01 -0.215426D-01  0.629377D-01 -0.339837D+00  0.107325D+00
     16   0.124155D+00 -0.692227D-01  0.226375D-01 -0.852489D-01  0.140377D+00
                 6 
      1  -0.633097D+03
      2  -0.231799D-02
      3   0.146726D+00
      4  -0.295356D-01
      5  -0.508914D-02
      6  -0.301679D-01
      7   0.255080D-01
      8  -0.527982D-01
      9  -0.271843D-02
     10   0.109490D-01
     11  -0.229087D+00
     12  -0.157927D+00
     13   0.119855D+00
     14   0.935069D-02
     15  -0.572715D-01
     16  -0.101556D+00
 1\1\GINC-CN015\SP\RCAM-B3LYP TD-FC\TZVP\C11H15N1O2\WYX\24-Jan-2026\0\\
 #p CAM-B3LYP TZVP em=gd3bj td(nstates=6,root=2) scrf=(Solvent=Water,Co
 rrectedLR,NonEquilibrium=Save) Geom=Check Guess=Read\\Title Card Requi
 red\\0,1\O,0,2.760405,-1.555555,0.689751\O,0,-3.339402,-1.661837,-0.86
 3072\N,0,-0.671754,1.523624,-0.014867\H,0,-0.980603,2.478498,-0.094279
 \C,0,-1.239227,-0.767642,-0.166759\C,0,0.660059,1.311921,0.19056\C,0,-
 1.608605,0.53769,-0.271327\C,0,-2.150677,-1.825896,-0.437212\C,0,0.153
 319,-1.123275,0.295133\H,0,0.11793,-1.556706,1.301188\H,0,0.567617,-1.
 904442,-0.342689\C,0,1.120531,0.037935,0.297356\C,0,2.505018,-0.369993
 ,0.473265\C,0,-2.94411,1.070901,-0.63966\H,0,-3.25122,1.883088,0.02526
 7\H,0,-2.955389,1.461451,-1.660282\H,0,-3.739176,0.329041,-0.593283\C,
 0,-1.806385,-3.268498,-0.224969\H,0,-2.618101,-3.849245,0.216945\H,0,-
 1.559398,-3.75311,-1.174406\H,0,-0.943859,-3.41376,0.422595\C,0,3.6677
 45,0.586662,0.375697\H,0,3.586679,1.271735,-0.464221\H,0,3.757683,1.17
 9408,1.286921\H,0,4.570556,-0.009722,0.269314\C,0,1.43952,2.58994,0.26
 4299\H,0,2.172341,2.580919,1.063334\H,0,1.958935,2.788452,-0.673345\H,
 0,0.769569,3.428417,0.448744\\Version=ES64L-G16RevA.03\State=1-A\HF=-6
 33.3226843\RMSD=2.112e-09\Dipole=-0.7296829,2.5740065,-0.1957623\Quadr
 upole=-8.4334833,10.7021741,-2.2686909,6.8390468,-3.3218888,1.0093313\
 PG=C01 [X(C11H15N1O2)]\\@


 THE PROMISED LAND ALWAYS LIES ON THE OTHER SIDE OF A WILDERNESS.

                         -- HAVELOCK ELLIS
 Job cpu time:       0 days  2 hours 50 minutes 14.3 seconds.
 Elapsed time:       0 days  0 hours 10 minutes 41.6 seconds.
 File lengths (MBytes):  RWF=    735 Int=      0 D2E=      0 Chk=     67 Scr=      1
 Normal termination of Gaussian 16 at Sat Jan 24 19:26:24 2026.
