 Entering Gaussian System, Link 0=g16
 Input=DDL-S1-cLR-gs-8.gjf
 Output=DDL-S1-cLR-gs-8.log
 Initial command:
 /data/home/wyx/g16/l1.exe "/scr/tmp/wyx/13119/Gau-1529487.inp" -scrdir="/scr/tmp/wyx/13119/"
 Entering Link 1 = /data/home/wyx/g16/l1.exe PID=   1529488.
  
 Copyright (c) 1988,1990,1992,1993,1995,1998,2003,2009,2016,
            Gaussian, Inc.  All Rights Reserved.
  
 This is part of the Gaussian(R) 16 program.  It is based on
 the Gaussian(R) 09 system (copyright 2009, Gaussian, Inc.),
 the Gaussian(R) 03 system (copyright 2003, Gaussian, Inc.),
 the Gaussian(R) 98 system (copyright 1998, Gaussian, Inc.),
 the Gaussian(R) 94 system (copyright 1995, Gaussian, Inc.),
 the Gaussian 92(TM) system (copyright 1992, Gaussian, Inc.),
 the Gaussian 90(TM) system (copyright 1990, Gaussian, Inc.),
 the Gaussian 88(TM) system (copyright 1988, Gaussian, Inc.),
 the Gaussian 86(TM) system (copyright 1986, Carnegie Mellon
 University), and the Gaussian 82(TM) system (copyright 1983,
 Carnegie Mellon University). Gaussian is a federally registered
 trademark of Gaussian, Inc.
  
 This software contains proprietary and confidential information,
 including trade secrets, belonging to Gaussian, Inc.
  
 This software is provided under written license and may be
 used, copied, transmitted, or stored only in accord with that
 written license.
  
 The following legend is applicable only to US Government
 contracts under FAR:
  
                    RESTRICTED RIGHTS LEGEND
  
 Use, reproduction and disclosure by the US Government is
 subject to restrictions as set forth in subparagraphs (a)
 and (c) of the Commercial Computer Software - Restricted
 Rights clause in FAR 52.227-19.
  
 Gaussian, Inc.
 340 Quinnipiac St., Bldg. 40, Wallingford CT 06492
  
  
 ---------------------------------------------------------------
 Warning -- This program may not be used in any manner that
 competes with the business of Gaussian, Inc. or will provide
 assistance to any competitor of Gaussian, Inc.  The licensee
 of this program is prohibited from giving any competitor of
 Gaussian, Inc. access to this program.  By using this program,
 the user acknowledges that Gaussian, Inc. is engaged in the
 business of creating and licensing software in the field of
 computational chemistry and represents and warrants to the
 licensee that it is not a competitor of Gaussian, Inc. and that
 it will not use this program in any manner prohibited above.
 ---------------------------------------------------------------
  

 Cite this work as:
 Gaussian 16, Revision A.03,
 M. J. Frisch, G. W. Trucks, H. B. Schlegel, G. E. Scuseria, 
 M. A. Robb, J. R. Cheeseman, G. Scalmani, V. Barone, 
 G. A. Petersson, H. Nakatsuji, X. Li, M. Caricato, A. V. Marenich, 
 J. Bloino, B. G. Janesko, R. Gomperts, B. Mennucci, H. P. Hratchian, 
 J. V. Ortiz, A. F. Izmaylov, J. L. Sonnenberg, D. Williams-Young, 
 F. Ding, F. Lipparini, F. Egidi, J. Goings, B. Peng, A. Petrone, 
 T. Henderson, D. Ranasinghe, V. G. Zakrzewski, J. Gao, N. Rega, 
 G. Zheng, W. Liang, M. Hada, M. Ehara, K. Toyota, R. Fukuda, 
 J. Hasegawa, M. Ishida, T. Nakajima, Y. Honda, O. Kitao, H. Nakai, 
 T. Vreven, K. Throssell, J. A. Montgomery, Jr., J. E. Peralta, 
 F. Ogliaro, M. J. Bearpark, J. J. Heyd, E. N. Brothers, K. N. Kudin, 
 V. N. Staroverov, T. A. Keith, R. Kobayashi, J. Normand, 
 K. Raghavachari, A. P. Rendell, J. C. Burant, S. S. Iyengar, 
 J. Tomasi, M. Cossi, J. M. Millam, M. Klene, C. Adamo, R. Cammi, 
 J. W. Ochterski, R. L. Martin, K. Morokuma, O. Farkas, 
 J. B. Foresman, and D. J. Fox, Gaussian, Inc., Wallingford CT, 2016.
 
 ******************************************
 Gaussian 16:  ES64L-G16RevA.03 25-Dec-2016
                24-Jan-2026 
 ******************************************
 %nprocshared=16
 Will use up to   16 processors via shared memory.
 %mem=16GB
 %oldchk=DDL-S1-cLR-8.chk
 %chk=DDL-S1-cLR-gs-8.chk
 Copying data from "DDL-S1-cLR-8.chk" to current chk file "DDL-S1-cLR-gs-8.chk"
 IOpt=  2 FromEx=T IUOpen= 4 IOptOp= 5 NList=   0 IFRang= 0 IUIn= 4 IUOut= 2.
 ----------------------------------------------------------------------
 #p CAM-B3LYP TZVP em=gd3bj scrf=(Solvent=Water,NonEquilibrium=Read) Ge
 om=Check Guess=Read
 ----------------------------------------------------------------------
 1/29=2,38=1,172=1/1;
 2/12=2,40=1/2;
 3/5=19,7=101,11=2,14=-4,25=1,30=1,70=6002201,72=1,74=-40,116=-2,124=41/1,2,3;
 4/5=1/1;
 5/5=2,38=6,53=1/2;
 6/7=2,8=2,9=2,10=2,28=1/1;
 99/5=1,9=1/99;
 Leave Link    1 at Sat Jan 24 23:30:31 2026, MaxMem=  2147483648 cpu:               1.7 elap:               0.2
 (Enter /data/home/wyx/g16/l101.exe)
 -------------------
 Title Card Required
 -------------------
 Structure from the checkpoint file:  "DDL-S1-cLR-gs-8.chk"
 Charge =  0 Multiplicity = 1
 Z-Matrix found in chk file.
 O,0,2.757988,-1.556846,0.697942
 O,0,-3.318432,-1.658458,-0.919099
 N,0,-0.679008,1.522195,0.015791
 H,0,-0.986691,2.477782,-0.059774
 C,0,-1.240545,-0.764858,-0.163619
 C,0,0.656772,1.309271,0.210153
 C,0,-1.609855,0.53875,-0.261129
 C,0,-2.152406,-1.82488,-0.46128
 C,0,0.142357,-1.120184,0.325722
 H,0,0.091423,-1.527928,1.342268
 H,0,0.559703,-1.919262,-0.286436
 C,0,1.115198,0.035804,0.310449
 C,0,2.5026,-0.374418,0.469468
 C,0,-2.942056,1.071888,-0.644132
 H,0,-3.214333,1.94351,-0.043202
 H,0,-2.966862,1.376836,-1.692792
 H,0,-3.752151,0.356231,-0.520849
 C,0,-1.793861,-3.260932,-0.229849
 H,0,-2.638627,-3.875619,0.084155
 H,0,-1.403977,-3.715366,-1.145791
 H,0,-1.022193,-3.401523,0.52573
 C,0,3.66484,0.57792,0.336114
 H,0,3.560651,1.264677,-0.499761
 H,0,3.784878,1.168252,1.245542
 H,0,4.561771,-0.021814,0.202152
 C,0,1.435664,2.587414,0.279899
 H,0,2.192886,2.568609,1.055322
 H,0,1.924335,2.801646,-0.670939
 H,0,0.769929,3.421304,0.497944
 Recover connectivity data from disk.
 ITRead=  0  0  0  0  0  0  0  0  0  0  0  0  0  0  0  0  0  0  0  0
 ITRead=  0  0  0  0  0  0  0  0  0
 MicOpt= -1 -1 -1 -1 -1 -1 -1 -1 -1 -1 -1 -1 -1 -1 -1 -1 -1 -1 -1 -1
 MicOpt= -1 -1 -1 -1 -1 -1 -1 -1 -1
 NAtoms=     29 NQM=       29 NQMF=       0 NMMI=      0 NMMIF=      0
                NMic=       0 NMicF=      0.
                    Isotopes and Nuclear Properties:
 (Nuclear quadrupole moments (NQMom) in fm**2, nuclear magnetic moments (NMagM)
  in nuclear magnetons)

  Atom         1           2           3           4           5           6           7           8           9          10
 IAtWgt=          16          16          14           1          12          12          12          12          12           1
 AtmWgt=  15.9949146  15.9949146  14.0030740   1.0078250  12.0000000  12.0000000  12.0000000  12.0000000  12.0000000   1.0078250
 NucSpn=           0           0           2           1           0           0           0           0           0           1
 AtZEff=   5.6000000   5.6000000   4.5500000   1.0000000   3.6000000   3.6000000   3.6000000   3.6000000   3.6000000   1.0000000
 NQMom=    0.0000000   0.0000000   2.0440000   0.0000000   0.0000000   0.0000000   0.0000000   0.0000000   0.0000000   0.0000000
 NMagM=    0.0000000   0.0000000   0.4037610   2.7928460   0.0000000   0.0000000   0.0000000   0.0000000   0.0000000   2.7928460
 AtZNuc=   8.0000000   8.0000000   7.0000000   1.0000000   6.0000000   6.0000000   6.0000000   6.0000000   6.0000000   1.0000000

  Atom        11          12          13          14          15          16          17          18          19          20
 IAtWgt=           1          12          12          12           1           1           1          12           1           1
 AtmWgt=   1.0078250  12.0000000  12.0000000  12.0000000   1.0078250   1.0078250   1.0078250  12.0000000   1.0078250   1.0078250
 NucSpn=           1           0           0           0           1           1           1           0           1           1
 AtZEff=   1.0000000   3.6000000   3.6000000   3.6000000   1.0000000   1.0000000   1.0000000   3.6000000   1.0000000   1.0000000
 NQMom=    0.0000000   0.0000000   0.0000000   0.0000000   0.0000000   0.0000000   0.0000000   0.0000000   0.0000000   0.0000000
 NMagM=    2.7928460   0.0000000   0.0000000   0.0000000   2.7928460   2.7928460   2.7928460   0.0000000   2.7928460   2.7928460
 AtZNuc=   1.0000000   6.0000000   6.0000000   6.0000000   1.0000000   1.0000000   1.0000000   6.0000000   1.0000000   1.0000000

  Atom        21          22          23          24          25          26          27          28          29
 IAtWgt=           1          12           1           1           1          12           1           1           1
 AtmWgt=   1.0078250  12.0000000   1.0078250   1.0078250   1.0078250  12.0000000   1.0078250   1.0078250   1.0078250
 NucSpn=           1           0           1           1           1           0           1           1           1
 AtZEff=   1.0000000   3.6000000   1.0000000   1.0000000   1.0000000   3.6000000   1.0000000   1.0000000   1.0000000
 NQMom=    0.0000000   0.0000000   0.0000000   0.0000000   0.0000000   0.0000000   0.0000000   0.0000000   0.0000000
 NMagM=    2.7928460   0.0000000   2.7928460   2.7928460   2.7928460   0.0000000   2.7928460   2.7928460   2.7928460
 AtZNuc=   1.0000000   6.0000000   1.0000000   1.0000000   1.0000000   6.0000000   1.0000000   1.0000000   1.0000000
 Leave Link  101 at Sat Jan 24 23:30:47 2026, MaxMem=  2147483648 cpu:               0.8 elap:               0.1
 (Enter /data/home/wyx/g16/l202.exe)
                          Input orientation:                          
 ---------------------------------------------------------------------
 Center     Atomic      Atomic             Coordinates (Angstroms)
 Number     Number       Type             X           Y           Z
 ---------------------------------------------------------------------
      1          8           0        2.757988   -1.556846    0.697942
      2          8           0       -3.318432   -1.658458   -0.919099
      3          7           0       -0.679008    1.522195    0.015791
      4          1           0       -0.986691    2.477782   -0.059774
      5          6           0       -1.240545   -0.764858   -0.163619
      6          6           0        0.656772    1.309271    0.210153
      7          6           0       -1.609855    0.538750   -0.261129
      8          6           0       -2.152406   -1.824880   -0.461280
      9          6           0        0.142357   -1.120184    0.325722
     10          1           0        0.091423   -1.527928    1.342268
     11          1           0        0.559703   -1.919262   -0.286436
     12          6           0        1.115198    0.035804    0.310449
     13          6           0        2.502600   -0.374418    0.469468
     14          6           0       -2.942056    1.071888   -0.644132
     15          1           0       -3.214333    1.943510   -0.043202
     16          1           0       -2.966862    1.376836   -1.692792
     17          1           0       -3.752151    0.356231   -0.520849
     18          6           0       -1.793861   -3.260932   -0.229849
     19          1           0       -2.638627   -3.875619    0.084155
     20          1           0       -1.403977   -3.715366   -1.145791
     21          1           0       -1.022193   -3.401523    0.525730
     22          6           0        3.664840    0.577920    0.336114
     23          1           0        3.560651    1.264677   -0.499761
     24          1           0        3.784878    1.168252    1.245542
     25          1           0        4.561771   -0.021814    0.202152
     26          6           0        1.435664    2.587414    0.279899
     27          1           0        2.192886    2.568609    1.055322
     28          1           0        1.924335    2.801646   -0.670939
     29          1           0        0.769929    3.421304    0.497944
 ---------------------------------------------------------------------
                    Distance matrix (angstroms):
                    1          2          3          4          5
     1  O    0.000000
     2  O    6.288722   0.000000
     3  N    4.664629   4.237586   0.000000
     4  H    5.556526   4.825343   1.006740   0.000000
     5  C    4.166269   2.384719   2.361805   3.254219   0.000000
     6  C    3.587154   5.087718   1.366536   2.034514   2.835759
     7  C    4.938562   2.860049   1.382145   2.046637   1.358415
     8  C    5.052485   1.263689   3.688009   4.475824   1.429594
     9  C    2.677825   3.717039   2.784397   3.790609   1.509347
    10  H    2.743458   4.093645   3.414141   4.378786   2.150374
    11  H    2.435734   3.938047   3.670064   4.666552   2.142108
    12  C    2.320656   4.902998   2.348480   3.243187   2.532849
    13  C    1.231081   6.120563   3.731701   4.537653   3.816330
    14  C    6.418871   2.769847   2.399929   2.478198   2.549445
    15  H    6.962069   3.708397   2.570770   2.290875   3.353445
    16  H    6.862653   3.152017   2.859136   2.792831   3.147284
    17  H    6.893999   2.098973   3.330415   3.515869   2.773557
    18  C    4.948134   2.316745   4.917473   5.797697   2.557524
    19  H    5.905666   2.526748   5.742924   6.566225   3.419482
    20  H    5.037908   2.819113   5.413585   6.301479   3.113980
    21  H    4.209781   3.224674   4.961936   5.908494   2.734023
    22  C    2.347451   7.439290   4.456824   5.040133   5.110341
    23  H    3.168557   7.486144   4.278647   4.726894   5.223360
    24  H    2.963196   7.945626   4.643688   5.117283   5.565746
    25  H    2.419869   8.126094   5.466668   6.091142   5.861124
    26  C    4.370148   6.485866   2.382495   2.448510   4.312369
    27  H    4.179287   7.220877   3.228526   3.370667   4.938245
    28  H    4.643842   6.887722   2.980937   2.992070   4.795184
    29  H    5.364173   6.672832   2.436905   2.070506   4.690802
                    6          7          8          9         10
     6  C    0.000000
     7  C    2.439961   0.000000
     8  C    4.262066   2.433345   0.000000
     9  C    2.486007   2.483285   2.526243   0.000000
    10  H    3.106606   3.120318   2.894086   1.096456   0.000000
    11  H    3.267943   3.278635   2.719377   1.089698   1.739283
    12  C    1.357178   2.829412   3.838613   1.510947   2.134953
    13  C    2.511799   4.275504   4.963790   2.479431   2.811786
    14  C    3.706443   1.485156   3.008030   3.906328   4.461706
    15  H    3.930891   2.143640   3.937416   4.559572   4.989833
    16  H    4.093469   2.143249   3.525755   4.469536   5.196379
    17  H    4.569601   2.165687   2.705546   4.250138   4.668439
    18  C    5.204417   3.804263   1.498119   2.939456   3.004854
    19  H    6.144804   4.545794   2.177026   3.922327   3.814141
    20  H    5.597522   4.350002   2.145376   3.360278   3.634769
    21  H    5.010997   4.060818   2.176551   2.569180   2.327495
    22  C    3.098260   5.308544   6.344260   3.910441   4.268050
    23  H    2.989729   5.226667   6.495065   4.248967   4.819466
    24  H    3.298024   5.636442   6.864650   4.398973   4.573877
    25  H    4.125636   6.214324   6.983650   4.555536   4.853067
    26  C    1.498395   3.710111   5.735149   3.926961   4.457763
    27  H    2.158678   4.507129   6.362734   4.283011   4.613036
    28  H    2.147143   4.216532   6.169969   4.421485   5.114468
    29  H    2.134552   3.814273   6.081332   4.587878   5.066375
                   11         12         13         14         15
    11  H    0.000000
    12  C    2.118285   0.000000
    13  C    2.594761   1.455491   0.000000
    14  C    4.619225   4.294881   5.742489   0.000000
    15  H    5.405878   4.744391   6.190230   1.093150   0.000000
    16  H    5.027799   4.740734   6.136552   1.092381   1.761678
    17  H    4.881076   4.948213   6.374675   1.087942   1.742656
    18  C    2.709713   4.429787   5.223082   4.501479   5.398036
    19  H    3.767491   5.426015   6.232102   5.010020   5.848925
    20  H    2.796519   4.747437   5.388167   5.053232   6.042844
    21  H    2.314974   4.053394   4.646579   5.006581   5.805044
    22  C    4.033034   2.606765   1.508487   6.697459   7.023656
    23  H    4.380487   2.854262   2.178419   6.507166   6.824197
    24  H    4.720323   3.046970   2.150897   6.987975   7.158969
    25  H    4.455960   3.448755   2.106175   7.630190   8.024369
    26  C    4.625816   2.571837   3.153845   4.723884   4.705473
    27  H    4.960704   2.851552   3.016713   5.612125   5.552974
    28  H    4.929202   3.044291   3.423785   5.164740   5.247510
    29  H    5.401953   3.408222   4.172585   4.539045   4.283813
                   16         17         18         19         20
    16  H    0.000000
    17  H    1.741196   0.000000
    18  C    5.002502   4.123524   0.000000
    19  H    5.554598   4.417524   1.090902   0.000000
    20  H    5.354656   4.741558   1.094290   1.750088   0.000000
    21  H    5.615718   4.761167   1.089099   1.741440   1.743054
    22  C    6.980988   7.469624   6.697351   7.722123   6.805972
    23  H    6.636590   7.369043   7.016038   8.074320   7.061566
    24  H    7.366363   7.783722   7.274392   8.249295   7.516144
    25  H    7.888431   8.353858   7.146507   8.167709   7.144888
    26  C    4.973856   5.703753   6.700211   7.642575   7.058413
    27  H    5.966192   6.536237   7.178396   8.112630   7.567738
    28  H    5.195967   6.182643   7.125615   8.122602   7.333116
    29  H    4.789862   5.557141   7.194093   8.064401   7.639358
                   21         22         23         24         25
    21  H    0.000000
    22  C    6.151439   0.000000
    23  H    6.620235   1.086820   0.000000
    24  H    6.671499   1.090853   1.762288   0.000000
    25  H    6.535120   1.087250   1.774819   1.763089   0.000000
    26  C    6.478338   3.001741   2.621655   2.909518   4.072672
    27  H    6.801447   2.578129   2.447305   2.128761   3.612452
    28  H    6.970893   2.998078   2.251467   3.130894   3.961096
    29  H    7.054321   4.060977   3.665322   3.837325   5.130363
                   26         27         28         29
    26  C    0.000000
    27  H    1.083983   0.000000
    28  H    1.090315   1.762499   0.000000
    29  H    1.089091   1.750019   1.755824   0.000000
 Stoichiometry    C11H15NO2
 Framework group  C1[X(C11H15NO2)]
 Deg. of freedom    81
 Full point group                 C1      NOp   1
 RotChk:  IX=0 Diff= 5.04D-16
 Largest Abelian subgroup         C1      NOp   1
 Largest concise Abelian subgroup C1      NOp   1
                         Standard orientation:                         
 ---------------------------------------------------------------------
 Center     Atomic      Atomic             Coordinates (Angstroms)
 Number     Number       Type             X           Y           Z
 ---------------------------------------------------------------------
      1          8           0       -2.269844   -2.302246   -0.121830
      2          8           0        3.646431   -0.213873    0.307610
      3          7           0       -0.051364    1.800819   -0.166164
      4          1           0       -0.086081    2.806957   -0.168706
      5          6           0        1.290486   -0.139547   -0.054173
      6          6           0       -1.242539    1.134577   -0.098015
      7          6           0        1.195671    1.215555   -0.053490
      8          6           0        2.550156   -0.801288    0.083922
      9          6           0        0.054345   -0.979854   -0.263856
     10          1           0        0.067267   -1.429963   -1.263582
     11          1           0        0.052378   -1.818747    0.431627
     12          6           0       -1.240815   -0.222538   -0.084994
     13          6           0       -2.405054   -1.088246    0.031407
     14          6           0        2.305048    2.196629    0.058156
     15          1           0        2.150052    3.055579   -0.599992
     16          1           0        2.403147    2.578559    1.076882
     17          1           0        3.278813    1.788339   -0.203948
     18          6           0        2.677716   -2.288147   -0.047758
     19          1           0        3.615509   -2.605997   -0.505560
     20          1           0        2.633968   -2.769215    0.934143
     21          1           0        1.884656   -2.743262   -0.639418
     22          6           0       -3.783815   -0.575889    0.366135
     23          1           0       -3.781676    0.173066    1.153687
     24          1           0       -4.256180   -0.138752   -0.514628
     25          1           0       -4.379589   -1.429481    0.680057
     26          6           0       -2.415934    2.064728   -0.041904
     27          1           0       -3.241340    1.727029   -0.658090
     28          1           0       -2.776639    2.180307    0.980505
     29          1           0       -2.129026    3.052929   -0.398641
 ---------------------------------------------------------------------
 Rotational constants (GHZ):           1.0952175           0.4848509           0.3422638
 Leave Link  202 at Sat Jan 24 23:30:48 2026, MaxMem=  2147483648 cpu:               0.0 elap:               0.0
 (Enter /data/home/wyx/g16/l301.exe)
 Standard basis: TZVP (5D, 7F)
 Ernie: Thresh=  0.10000D-02 Tol=  0.10000D-05 Strict=F.
 There are   370 symmetry adapted cartesian basis functions of A   symmetry.
 There are   356 symmetry adapted basis functions of A   symmetry.
   356 basis functions,   610 primitive gaussians,   370 cartesian basis functions
    52 alpha electrons       52 beta electrons
       nuclear repulsion energy       899.6875756740 Hartrees.
 IExCor=20419 DFT=T Ex+Corr=CAM-B3LYP ExCW=0 ScaHFX=  1.000000
 ScaDFX=  1.000000  1.000000  1.000000  0.810000 ScalE2=  1.000000  1.000000
 IRadAn=      5 IRanWt=     -1 IRanGd=            0 ICorTp=0 IEmpDi=141
 HFx  wShort=  0.000000 wLong=  0.330000 cFull=  0.190000 cShort=  0.000000 cLong=  0.460000
 DFx  wShort=  0.000000 wLong=  0.330000 cFull=  0.190000 cShort=  0.000000 cLong=  0.460000
 NAtoms=   29 NActive=   29 NUniq=   29 SFac= 1.00D+00 NAtFMM=   60 NAOKFM=F Big=F
 Integral buffers will be    131072 words long.
 Raffenetti 2 integral format.
 Two-electron integral symmetry is turned on.
 R6Disp:  Grimme-D3(BJ) Dispersion energy=       -0.0261252170 Hartrees.
 Nuclear repulsion after empirical dispersion term =      899.6614504570 Hartrees.
 ------------------------------------------------------------------------------
 Polarizable Continuum Model (PCM)
 =================================
 Model                : PCM.
 Atomic radii         : UFF (Universal Force Field).
 Polarization charges : Total charges.
 Charge compensation  : None.
 Solution method      : On-the-fly selection.
 Cavity type          : Scaled VdW (van der Waals Surface) (Alpha=1.100).
 Cavity algorithm     : GePol (No added spheres)
                        Default sphere list used, NSphG=   29.
                        Lebedev-Laikov grids with approx.  5.0 points / Ang**2.
                        Smoothing algorithm: York/Karplus (Gamma=1.0000).
                        Polarization charges: spherical gaussians, with
                                              point-specific exponents (IZeta= 3).
                        Self-potential: point-specific (ISelfS= 7).
                        Self-field    : sphere-specific E.n sum rule (ISelfD= 2).
 Solvent              : Water, Eps=  78.355300 Eps(inf)=   1.777849
 ------------------------------------------------------------------------------
 GePol: Number of generator spheres                  =      29
 GePol: Total number of spheres                      =      29
 GePol: Number of exposed spheres                    =      29 (100.00%)
 GePol: Number of points                             =    2118
 GePol: Average weight of points                     =       0.13
 GePol: Minimum weight of points                     =   0.57D-09
 GePol: Maximum weight of points                     =    0.20577
 GePol: Number of points with low weight             =     144
 GePol: Fraction of low-weight points (<1% of avg)   =       6.80%
 GePol: Cavity surface area                          =    268.934 Ang**2
 GePol: Cavity volume                                =    286.451 Ang**3
 Leave Link  301 at Sat Jan 24 23:30:49 2026, MaxMem=  2147483648 cpu:               0.6 elap:               0.0
 (Enter /data/home/wyx/g16/l302.exe)
 NPDir=0 NMtPBC=     1 NCelOv=     1 NCel=       1 NClECP=     1 NCelD=      1
         NCelK=      1 NCelE2=     1 NClLst=     1 CellRange=     0.0.
 One-electron integrals computed using PRISM.
 One-electron integral symmetry used in STVInt
 NBasis=   356 RedAO= T EigKep=  4.15D-05  NBF=   356
 NBsUse=   356 1.00D-06 EigRej= -1.00D+00 NBFU=   356
 Precomputing XC quadrature grid using
 IXCGrd= 4 IRadAn=           5 IRanWt=          -1 IRanGd=           0 AccXCQ= 0.00D+00.
 Generated NRdTot=       0 NPtTot=           0 NUsed=           0 NTot=          32
 NSgBfM=   366   366   366   366   366 MxSgAt=    29 MxSgA2=    29.
 Leave Link  302 at Sat Jan 24 23:30:49 2026, MaxMem=  2147483648 cpu:               3.1 elap:               0.2
 (Enter /data/home/wyx/g16/l303.exe)
 DipDrv:  MaxL=1.
 Leave Link  303 at Sat Jan 24 23:30:49 2026, MaxMem=  2147483648 cpu:               0.5 elap:               0.0
 (Enter /data/home/wyx/g16/l401.exe)
 Initial guess from the checkpoint file:  "DDL-S1-cLR-gs-8.chk"
 B after Tr=     0.000000   -0.000000   -0.000000
         Rot=    1.000000   -0.000000   -0.000000    0.000000 Ang=   0.00 deg.
 Guess basis will be translated and rotated to current coordinates.
 JPrj=2 DoOrth=T DoCkMO=T.
 Leave Link  401 at Sat Jan 24 23:30:50 2026, MaxMem=  2147483648 cpu:               2.2 elap:               0.2
 (Enter /data/home/wyx/g16/l502.exe)
 Integral symmetry usage will be decided dynamically.
 Closed shell SCF:
 Using DIIS extrapolation, IDIIS=  1040.
 NGot=  2147483648 LenX=  2147200095 LenY=  2147062754
 Requested convergence on RMS density matrix=1.00D-08 within 128 cycles.
 Requested convergence on MAX density matrix=1.00D-06.
 Requested convergence on             energy=1.00D-06.
 No special actions if energy rises.
 Fock matrices will be formed incrementally for  20 cycles.

 Cycle   1  Pass 1  IDiag  1:
 FoFJK:  IHMeth= 1 ICntrl=       0 DoSepK=T KAlg= 0 I1Cent=           0 FoldK=F
 IRaf=         1 NMat=       1 IRICut=       1 DoRegI=T DoRafI=F ISym2E= 0 IDoP0=0 IntGTp=1.
 FoFCou: FMM=F IPFlag=           0 FMFlag=      100000 FMFlg1=           0
         NFxFlg=           0 DoJE=T BraDBF=F KetDBF=F FulRan=T
         wScrn=  0.000000 ICntrl=       500 IOpCl=  0 I1Cent=           0 NGrid=           0
         NMat0=    1 NMatS0=      1 NMatT0=    0 NMatD0=    1 NMtDS0=    0 NMtDT0=    0
 Symmetry not used in FoFCou.
 Inv3:  Mode=1 IEnd=    13457772.
 Iteration    1 A*A^-1 deviation from unit magnitude is 2.89D-15 for    685.
 Iteration    1 A*A^-1 deviation from orthogonality  is 2.07D-15 for   1910    316.
 Iteration    1 A^-1*A deviation from unit magnitude is 2.89D-15 for    685.
 Iteration    1 A^-1*A deviation from orthogonality  is 1.78D-15 for   1977    284.
 NEqPCM:  Using non-equilibrium solvation (IEInf=1, Eps=  78.3553, EpsInf=   1.7778)
 Inv3:  Mode=1 IEnd=    13457772.
 Iteration    1 A*A^-1 deviation from unit magnitude is 3.55D-15 for   1635.
 Iteration    1 A*A^-1 deviation from orthogonality  is 2.00D-15 for   1947    370.
 Iteration    1 A^-1*A deviation from unit magnitude is 3.33D-15 for   1598.
 Iteration    1 A^-1*A deviation from orthogonality  is 2.12D-15 for   1764    497.
 E= -633.324575996441    
 DIIS: error= 3.43D-04 at cycle   1 NSaved=   1.
 NSaved= 1 IEnMin= 1 EnMin= -633.324575996441     IErMin= 1 ErrMin= 3.43D-04
 ErrMax= 3.43D-04  0.00D+00 EMaxC= 1.00D-01 BMatC= 3.41D-05 BMatP= 3.41D-05
 IDIUse=3 WtCom= 9.97D-01 WtEn= 3.43D-03
 Coeff-Com:  0.100D+01
 Coeff-En:   0.100D+01
 Coeff:      0.100D+01
 Gap=     0.230 Goal=   None    Shift=    0.000
 RMSDP=2.25D-04 MaxDP=1.12D-02              OVMax= 6.38D-03

 Cycle   2  Pass 1  IDiag  1:
 RMSU=  2.23D-04    CP:  9.98D-01
 E= -633.324633778049     Delta-E=       -0.000057781608 Rises=F Damp=F
 DIIS: error= 2.51D-04 at cycle   2 NSaved=   2.
 NSaved= 2 IEnMin= 2 EnMin= -633.324633778049     IErMin= 2 ErrMin= 2.51D-04
 ErrMax= 2.51D-04  0.00D+00 EMaxC= 1.00D-01 BMatC= 2.88D-05 BMatP= 3.41D-05
 IDIUse=3 WtCom= 9.97D-01 WtEn= 2.51D-03
 Coeff-Com:  0.472D+00 0.528D+00
 Coeff-En:   0.000D+00 0.100D+01
 Coeff:      0.470D+00 0.530D+00
 Gap=     0.231 Goal=   None    Shift=    0.000
 RMSDP=6.48D-05 MaxDP=3.84D-03 DE=-5.78D-05 OVMax= 1.71D-03

 Cycle   3  Pass 1  IDiag  1:
 RMSU=  5.37D-05    CP:  1.00D+00  8.83D-01
 E= -633.324658062353     Delta-E=       -0.000024284304 Rises=F Damp=F
 DIIS: error= 1.26D-04 at cycle   3 NSaved=   3.
 NSaved= 3 IEnMin= 3 EnMin= -633.324658062353     IErMin= 3 ErrMin= 1.26D-04
 ErrMax= 1.26D-04  0.00D+00 EMaxC= 1.00D-01 BMatC= 4.42D-06 BMatP= 2.88D-05
 IDIUse=3 WtCom= 9.99D-01 WtEn= 1.26D-03
 Coeff-Com:  0.954D-01 0.263D+00 0.642D+00
 Coeff-En:   0.000D+00 0.130D-01 0.987D+00
 Coeff:      0.952D-01 0.262D+00 0.642D+00
 Gap=     0.231 Goal=   None    Shift=    0.000
 RMSDP=1.71D-05 MaxDP=7.91D-04 DE=-2.43D-05 OVMax= 9.05D-04

 Cycle   4  Pass 1  IDiag  1:
 RMSU=  1.63D-05    CP:  1.00D+00  8.69D-01  1.01D+00
 E= -633.324661502874     Delta-E=       -0.000003440521 Rises=F Damp=F
 DIIS: error= 3.41D-05 at cycle   4 NSaved=   4.
 NSaved= 4 IEnMin= 4 EnMin= -633.324661502874     IErMin= 4 ErrMin= 3.41D-05
 ErrMax= 3.41D-05  0.00D+00 EMaxC= 1.00D-01 BMatC= 4.54D-07 BMatP= 4.42D-06
 IDIUse=1 WtCom= 1.00D+00 WtEn= 0.00D+00
 Coeff-Com: -0.314D-02 0.390D-01 0.254D+00 0.710D+00
 Coeff:     -0.314D-02 0.390D-01 0.254D+00 0.710D+00
 Gap=     0.231 Goal=   None    Shift=    0.000
 RMSDP=1.06D-05 MaxDP=6.00D-04 DE=-3.44D-06 OVMax= 4.03D-04

 Cycle   5  Pass 1  IDiag  1:
 RMSU=  5.76D-06    CP:  1.00D+00  8.73D-01  1.16D+00  1.06D+00
 E= -633.324661942543     Delta-E=       -0.000000439669 Rises=F Damp=F
 DIIS: error= 1.48D-05 at cycle   5 NSaved=   5.
 NSaved= 5 IEnMin= 5 EnMin= -633.324661942543     IErMin= 5 ErrMin= 1.48D-05
 ErrMax= 1.48D-05  0.00D+00 EMaxC= 1.00D-01 BMatC= 8.60D-08 BMatP= 4.54D-07
 IDIUse=1 WtCom= 1.00D+00 WtEn= 0.00D+00
 Coeff-Com: -0.124D-01-0.260D-01 0.186D-01 0.325D+00 0.695D+00
 Coeff:     -0.124D-01-0.260D-01 0.186D-01 0.325D+00 0.695D+00
 Gap=     0.231 Goal=   None    Shift=    0.000
 RMSDP=3.27D-06 MaxDP=1.10D-04 DE=-4.40D-07 OVMax= 1.82D-04

 Cycle   6  Pass 1  IDiag  1:
 RMSU=  1.90D-06    CP:  1.00D+00  8.69D-01  1.19D+00  1.16D+00  1.08D+00
 E= -633.324662056601     Delta-E=       -0.000000114058 Rises=F Damp=F
 DIIS: error= 8.12D-06 at cycle   6 NSaved=   6.
 NSaved= 6 IEnMin= 6 EnMin= -633.324662056601     IErMin= 6 ErrMin= 8.12D-06
 ErrMax= 8.12D-06  0.00D+00 EMaxC= 1.00D-01 BMatC= 9.18D-09 BMatP= 8.60D-08
 IDIUse=1 WtCom= 1.00D+00 WtEn= 0.00D+00
 Coeff-Com: -0.266D-02-0.155D-01-0.152D-01 0.210D-01 0.212D+00 0.800D+00
 Coeff:     -0.266D-02-0.155D-01-0.152D-01 0.210D-01 0.212D+00 0.800D+00
 Gap=     0.231 Goal=   None    Shift=    0.000
 RMSDP=2.00D-06 MaxDP=7.09D-05 DE=-1.14D-07 OVMax= 1.28D-04

 Cycle   7  Pass 1  IDiag  1:
 RMSU=  7.62D-07    CP:  1.00D+00  8.67D-01  1.22D+00  1.22D+00  1.20D+00
                    CP:  1.25D+00
 E= -633.324662075632     Delta-E=       -0.000000019030 Rises=F Damp=F
 DIIS: error= 3.81D-06 at cycle   7 NSaved=   7.
 NSaved= 7 IEnMin= 7 EnMin= -633.324662075632     IErMin= 7 ErrMin= 3.81D-06
 ErrMax= 3.81D-06  0.00D+00 EMaxC= 1.00D-01 BMatC= 3.95D-09 BMatP= 9.18D-09
 IDIUse=1 WtCom= 1.00D+00 WtEn= 0.00D+00
 Coeff-Com:  0.141D-02-0.438D-02-0.802D-02-0.587D-01-0.607D-01 0.418D+00
 Coeff-Com:  0.712D+00
 Coeff:      0.141D-02-0.438D-02-0.802D-02-0.587D-01-0.607D-01 0.418D+00
 Coeff:      0.712D+00
 Gap=     0.231 Goal=   None    Shift=    0.000
 RMSDP=8.13D-07 MaxDP=3.00D-05 DE=-1.90D-08 OVMax= 7.03D-05

 Cycle   8  Pass 1  IDiag  1:
 RMSU=  2.93D-07    CP:  1.00D+00  8.65D-01  1.22D+00  1.23D+00  1.26D+00
                    CP:  1.46D+00  1.13D+00
 E= -633.324662082556     Delta-E=       -0.000000006924 Rises=F Damp=F
 DIIS: error= 1.48D-06 at cycle   8 NSaved=   8.
 NSaved= 8 IEnMin= 8 EnMin= -633.324662082556     IErMin= 8 ErrMin= 1.48D-06
 ErrMax= 1.48D-06  0.00D+00 EMaxC= 1.00D-01 BMatC= 4.02D-10 BMatP= 3.95D-09
 IDIUse=1 WtCom= 1.00D+00 WtEn= 0.00D+00
 Coeff-Com:  0.960D-03 0.188D-03 0.160D-02-0.207D-01-0.659D-01-0.109D-01
 Coeff-Com:  0.205D+00 0.890D+00
 Coeff:      0.960D-03 0.188D-03 0.160D-02-0.207D-01-0.659D-01-0.109D-01
 Coeff:      0.205D+00 0.890D+00
 Gap=     0.231 Goal=   None    Shift=    0.000
 RMSDP=4.12D-07 MaxDP=1.58D-05 DE=-6.92D-09 OVMax= 3.31D-05

 Cycle   9  Pass 1  IDiag  1:
 RMSU=  1.36D-07    CP:  1.00D+00  8.65D-01  1.23D+00  1.24D+00  1.27D+00
                    CP:  1.56D+00  1.34D+00  1.25D+00
 E= -633.324662083560     Delta-E=       -0.000000001004 Rises=F Damp=F
 DIIS: error= 5.48D-07 at cycle   9 NSaved=   9.
 NSaved= 9 IEnMin= 9 EnMin= -633.324662083560     IErMin= 9 ErrMin= 5.48D-07
 ErrMax= 5.48D-07  0.00D+00 EMaxC= 1.00D-01 BMatC= 4.66D-11 BMatP= 4.02D-10
 IDIUse=1 WtCom= 1.00D+00 WtEn= 0.00D+00
 Coeff-Com:  0.160D-03 0.418D-03 0.179D-02 0.201D-02-0.160D-01-0.627D-01
 Coeff-Com: -0.226D-01 0.331D+00 0.766D+00
 Coeff:      0.160D-03 0.418D-03 0.179D-02 0.201D-02-0.160D-01-0.627D-01
 Coeff:     -0.226D-01 0.331D+00 0.766D+00
 Gap=     0.231 Goal=   None    Shift=    0.000
 RMSDP=9.60D-08 MaxDP=3.30D-06 DE=-1.00D-09 OVMax= 1.10D-05

 Cycle  10  Pass 1  IDiag  1:
 RMSU=  4.32D-08    CP:  1.00D+00  8.65D-01  1.23D+00  1.24D+00  1.26D+00
                    CP:  1.59D+00  1.41D+00  1.37D+00  1.12D+00
 E= -633.324662083671     Delta-E=       -0.000000000111 Rises=F Damp=F
 DIIS: error= 1.46D-07 at cycle  10 NSaved=  10.
 NSaved=10 IEnMin=10 EnMin= -633.324662083671     IErMin=10 ErrMin= 1.46D-07
 ErrMax= 1.46D-07  0.00D+00 EMaxC= 1.00D-01 BMatC= 1.17D-11 BMatP= 4.66D-11
 IDIUse=1 WtCom= 1.00D+00 WtEn= 0.00D+00
 Coeff-Com: -0.419D-04 0.243D-03 0.560D-03 0.376D-02 0.785D-04-0.301D-01
 Coeff-Com: -0.353D-01 0.330D-01 0.364D+00 0.663D+00
 Coeff:     -0.419D-04 0.243D-03 0.560D-03 0.376D-02 0.785D-04-0.301D-01
 Coeff:     -0.353D-01 0.330D-01 0.364D+00 0.663D+00
 Gap=     0.231 Goal=   None    Shift=    0.000
 RMSDP=5.29D-08 MaxDP=3.26D-06 DE=-1.11D-10 OVMax= 2.98D-06

 Cycle  11  Pass 1  IDiag  1:
 RMSU=  2.53D-08    CP:  1.00D+00  8.65D-01  1.23D+00  1.24D+00  1.26D+00
                    CP:  1.60D+00  1.44D+00  1.42D+00  1.30D+00  1.04D+00
 E= -633.324662083683     Delta-E=       -0.000000000012 Rises=F Damp=F
 DIIS: error= 8.32D-08 at cycle  11 NSaved=  11.
 NSaved=11 IEnMin=11 EnMin= -633.324662083683     IErMin=11 ErrMin= 8.32D-08
 ErrMax= 8.32D-08  0.00D+00 EMaxC= 1.00D-01 BMatC= 2.07D-12 BMatP= 1.17D-11
 IDIUse=1 WtCom= 1.00D+00 WtEn= 0.00D+00
 Coeff-Com: -0.531D-04 0.580D-04-0.199D-03 0.158D-02 0.371D-02-0.803D-03
 Coeff-Com: -0.109D-01-0.586D-01 0.341D-01 0.303D+00 0.728D+00
 Coeff:     -0.531D-04 0.580D-04-0.199D-03 0.158D-02 0.371D-02-0.803D-03
 Coeff:     -0.109D-01-0.586D-01 0.341D-01 0.303D+00 0.728D+00
 Gap=     0.231 Goal=   None    Shift=    0.000
 RMSDP=1.68D-08 MaxDP=4.90D-07 DE=-1.21D-11 OVMax= 1.41D-06

 Cycle  12  Pass 1  IDiag  1:
 RMSU=  6.63D-09    CP:  1.00D+00  8.65D-01  1.23D+00  1.24D+00  1.26D+00
                    CP:  1.60D+00  1.44D+00  1.43D+00  1.35D+00  1.19D+00
                    CP:  9.72D-01
 E= -633.324662083686     Delta-E=       -0.000000000004 Rises=F Damp=F
 DIIS: error= 3.21D-08 at cycle  12 NSaved=  12.
 NSaved=12 IEnMin=12 EnMin= -633.324662083686     IErMin=12 ErrMin= 3.21D-08
 ErrMax= 3.21D-08  0.00D+00 EMaxC= 1.00D-01 BMatC= 3.63D-13 BMatP= 2.07D-12
 IDIUse=1 WtCom= 1.00D+00 WtEn= 0.00D+00
 Coeff-Com: -0.183D-04 0.746D-05-0.166D-03 0.163D-03 0.142D-02 0.364D-02
 Coeff-Com:  0.143D-02-0.287D-01-0.326D-01 0.952D-02 0.329D+00 0.717D+00
 Coeff:     -0.183D-04 0.746D-05-0.166D-03 0.163D-03 0.142D-02 0.364D-02
 Coeff:      0.143D-02-0.287D-01-0.326D-01 0.952D-02 0.329D+00 0.717D+00
 Gap=     0.231 Goal=   None    Shift=    0.000
 RMSDP=8.49D-09 MaxDP=5.70D-07 DE=-3.64D-12 OVMax= 4.80D-07

 Error on total polarization charges =  0.00894
 SCF Done:  E(RCAM-B3LYP) =  -633.324662084     A.U. after   12 cycles
            NFock= 12  Conv=0.85D-08     -V/T= 2.0042
 KE= 6.306661770299D+02 PE=-3.275249558645D+03 EE= 1.111597269074D+03
 Leave Link  502 at Sat Jan 24 23:31:43 2026, MaxMem=  2147483648 cpu:             836.0 elap:              53.3
 (Enter /data/home/wyx/g16/l601.exe)
 Copying SCF densities to generalized density rwf, IOpCl= 0 IROHF=0.

 **********************************************************************

            Population analysis using the SCF density.

 **********************************************************************

 Orbital symmetries:
       Occupied  (A) (A) (A) (A) (A) (A) (A) (A) (A) (A) (A) (A)
                 (A) (A) (A) (A) (A) (A) (A) (A) (A) (A) (A) (A)
                 (A) (A) (A) (A) (A) (A) (A) (A) (A) (A) (A) (A)
                 (A) (A) (A) (A) (A) (A) (A) (A) (A) (A) (A) (A)
                 (A) (A) (A) (A)
       Virtual   (A) (A) (A) (A) (A) (A) (A) (A) (A) (A) (A) (A)
                 (A) (A) (A) (A) (A) (A) (A) (A) (A) (A) (A) (A)
                 (A) (A) (A) (A) (A) (A) (A) (A) (A) (A) (A) (A)
                 (A) (A) (A) (A) (A) (A) (A) (A) (A) (A) (A) (A)
                 (A) (A) (A) (A) (A) (A) (A) (A) (A) (A) (A) (A)
                 (A) (A) (A) (A) (A) (A) (A) (A) (A) (A) (A) (A)
                 (A) (A) (A) (A) (A) (A) (A) (A) (A) (A) (A) (A)
                 (A) (A) (A) (A) (A) (A) (A) (A) (A) (A) (A) (A)
                 (A) (A) (A) (A) (A) (A) (A) (A) (A) (A) (A) (A)
                 (A) (A) (A) (A) (A) (A) (A) (A) (A) (A) (A) (A)
                 (A) (A) (A) (A) (A) (A) (A) (A) (A) (A) (A) (A)
                 (A) (A) (A) (A) (A) (A) (A) (A) (A) (A) (A) (A)
                 (A) (A) (A) (A) (A) (A) (A) (A) (A) (A) (A) (A)
                 (A) (A) (A) (A) (A) (A) (A) (A) (A) (A) (A) (A)
                 (A) (A) (A) (A) (A) (A) (A) (A) (A) (A) (A) (A)
                 (A) (A) (A) (A) (A) (A) (A) (A) (A) (A) (A) (A)
                 (A) (A) (A) (A) (A) (A) (A) (A) (A) (A) (A) (A)
                 (A) (A) (A) (A) (A) (A) (A) (A) (A) (A) (A) (A)
                 (A) (A) (A) (A) (A) (A) (A) (A) (A) (A) (A) (A)
                 (A) (A) (A) (A) (A) (A) (A) (A) (A) (A) (A) (A)
                 (A) (A) (A) (A) (A) (A) (A) (A) (A) (A) (A) (A)
                 (A) (A) (A) (A) (A) (A) (A) (A) (A) (A) (A) (A)
                 (A) (A) (A) (A) (A) (A) (A) (A) (A) (A) (A) (A)
                 (A) (A) (A) (A) (A) (A) (A) (A) (A) (A) (A) (A)
                 (A) (A) (A) (A) (A) (A) (A) (A) (A) (A) (A) (A)
                 (A) (A) (A) (A)
 The electronic state is 1-A.
 Alpha  occ. eigenvalues --  -19.17675 -19.17021 -14.44068 -10.33404 -10.33208
 Alpha  occ. eigenvalues --  -10.32106 -10.31985 -10.25461 -10.24960 -10.24821
 Alpha  occ. eigenvalues --  -10.24767 -10.24439 -10.23997 -10.23941  -1.11697
 Alpha  occ. eigenvalues --   -1.09908  -1.07481  -0.91306  -0.90346  -0.83855
 Alpha  occ. eigenvalues --   -0.82396  -0.81366  -0.78678  -0.74002  -0.71356
 Alpha  occ. eigenvalues --   -0.68931  -0.61912  -0.58305  -0.56793  -0.54946
 Alpha  occ. eigenvalues --   -0.54479  -0.54136  -0.52390  -0.51794  -0.50567
 Alpha  occ. eigenvalues --   -0.49677  -0.49318  -0.49004  -0.48261  -0.48146
 Alpha  occ. eigenvalues --   -0.46627  -0.45312  -0.44540  -0.43349  -0.42757
 Alpha  occ. eigenvalues --   -0.42320  -0.41762  -0.41207  -0.32838  -0.32137
 Alpha  occ. eigenvalues --   -0.31170  -0.26093
 Alpha virt. eigenvalues --   -0.03002   0.02104   0.06774   0.08473   0.08925
 Alpha virt. eigenvalues --    0.10348   0.10719   0.12092   0.12806   0.13805
 Alpha virt. eigenvalues --    0.14305   0.15637   0.15808   0.16575   0.16729
 Alpha virt. eigenvalues --    0.17492   0.17647   0.17972   0.18279   0.19117
 Alpha virt. eigenvalues --    0.19979   0.20999   0.22804   0.23378   0.24081
 Alpha virt. eigenvalues --    0.24487   0.24814   0.25571   0.25824   0.26523
 Alpha virt. eigenvalues --    0.27566   0.27975   0.28869   0.29701   0.30118
 Alpha virt. eigenvalues --    0.31606   0.32164   0.32795   0.33914   0.34875
 Alpha virt. eigenvalues --    0.35434   0.35952   0.37025   0.37791   0.38208
 Alpha virt. eigenvalues --    0.39782   0.41437   0.41923   0.42423   0.43187
 Alpha virt. eigenvalues --    0.44238   0.44763   0.45413   0.46285   0.46446
 Alpha virt. eigenvalues --    0.46864   0.48223   0.48381   0.48662   0.49055
 Alpha virt. eigenvalues --    0.49646   0.49962   0.50708   0.51523   0.51986
 Alpha virt. eigenvalues --    0.52134   0.52960   0.53572   0.53940   0.54552
 Alpha virt. eigenvalues --    0.54843   0.55791   0.55934   0.56943   0.58185
 Alpha virt. eigenvalues --    0.58864   0.59293   0.59791   0.61767   0.62469
 Alpha virt. eigenvalues --    0.63849   0.64680   0.66181   0.67189   0.68060
 Alpha virt. eigenvalues --    0.69925   0.70792   0.71429   0.71668   0.72749
 Alpha virt. eigenvalues --    0.73575   0.74878   0.75737   0.77047   0.78759
 Alpha virt. eigenvalues --    0.79583   0.80404   0.81469   0.85157   0.86701
 Alpha virt. eigenvalues --    0.88632   0.90004   0.96062   1.01106   1.23942
 Alpha virt. eigenvalues --    1.24599   1.26990   1.28230   1.29975   1.30920
 Alpha virt. eigenvalues --    1.32935   1.33211   1.34206   1.35850   1.36118
 Alpha virt. eigenvalues --    1.37357   1.37773   1.38684   1.39582   1.39814
 Alpha virt. eigenvalues --    1.40281   1.41065   1.41226   1.41906   1.42219
 Alpha virt. eigenvalues --    1.42963   1.43994   1.44551   1.45257   1.46839
 Alpha virt. eigenvalues --    1.48139   1.49690   1.49936   1.51041   1.51884
 Alpha virt. eigenvalues --    1.51951   1.52823   1.53657   1.55832   1.57415
 Alpha virt. eigenvalues --    1.58539   1.60299   1.60762   1.61522   1.61930
 Alpha virt. eigenvalues --    1.62999   1.63368   1.64600   1.65584   1.65811
 Alpha virt. eigenvalues --    1.66542   1.67198   1.67432   1.68864   1.68988
 Alpha virt. eigenvalues --    1.69471   1.70270   1.71241   1.72247   1.73583
 Alpha virt. eigenvalues --    1.74008   1.74559   1.76000   1.77083   1.79863
 Alpha virt. eigenvalues --    1.80894   1.83311   1.84759   1.85488   1.86274
 Alpha virt. eigenvalues --    1.86593   1.86827   1.88189   1.89917   1.90377
 Alpha virt. eigenvalues --    1.91740   1.93734   1.96669   1.98634   2.01011
 Alpha virt. eigenvalues --    2.01534   2.04455   2.05514   2.07092   2.09928
 Alpha virt. eigenvalues --    2.11128   2.14231   2.14317   2.18589   2.20198
 Alpha virt. eigenvalues --    2.21229   2.22670   2.23230   2.24213   2.25184
 Alpha virt. eigenvalues --    2.27536   2.29005   2.29962   2.31650   2.32535
 Alpha virt. eigenvalues --    2.34307   2.34709   2.36409   2.37802   2.39236
 Alpha virt. eigenvalues --    2.40471   2.40834   2.41283   2.44394   2.45193
 Alpha virt. eigenvalues --    2.45627   2.47966   2.48918   2.50158   2.51560
 Alpha virt. eigenvalues --    2.52989   2.53731   2.54372   2.56399   2.57946
 Alpha virt. eigenvalues --    2.58620   2.60099   2.60912   2.62007   2.63343
 Alpha virt. eigenvalues --    2.64007   2.66197   2.66780   2.67849   2.68599
 Alpha virt. eigenvalues --    2.69669   2.72294   2.72678   2.73953   2.75042
 Alpha virt. eigenvalues --    2.76646   2.77111   2.77617   2.78429   2.78958
 Alpha virt. eigenvalues --    2.79887   2.81362   2.83535   2.84581   2.85258
 Alpha virt. eigenvalues --    2.85918   2.86912   2.88425   2.89644   2.92872
 Alpha virt. eigenvalues --    2.97849   2.98671   2.99518   3.04617   3.09686
 Alpha virt. eigenvalues --    3.09850   3.11176   3.13663   3.19022   3.20132
 Alpha virt. eigenvalues --    3.21785   3.22326   3.23194   3.25265   3.26258
 Alpha virt. eigenvalues --    3.27179   3.29962   3.31873   3.35341   3.37491
 Alpha virt. eigenvalues --    3.38882   3.39517   3.40083   3.41079   3.41150
 Alpha virt. eigenvalues --    3.42157   3.44473   3.45544   3.46951   3.49822
 Alpha virt. eigenvalues --    3.50275   3.51581   3.54564   3.57664   3.59419
 Alpha virt. eigenvalues --    3.61211   3.91174   3.99917   4.31362   4.35169
 Alpha virt. eigenvalues --   21.63858  21.77219  22.05880  22.10345  22.11554
 Alpha virt. eigenvalues --   22.12857  22.15873  22.18404  22.21254  22.26386
 Alpha virt. eigenvalues --   22.31068  31.93455  43.63407  43.65578
          Condensed to atoms (all electrons):
               1          2          3          4          5          6
     1  O    7.954048   0.000000  -0.000230   0.000017   0.016478   0.016167
     2  O    0.000000   8.078713   0.000497   0.000028  -0.191859   0.001429
     3  N   -0.000230   0.000497   6.349517   0.372639  -0.099064   0.362938
     4  H    0.000017   0.000028   0.372639   0.393587   0.012975  -0.041315
     5  C    0.016478  -0.191859  -0.099064   0.012975   7.105778  -0.051878
     6  C    0.016167   0.001429   0.362938  -0.041315  -0.051878   5.559708
     7  C   -0.000197  -0.013811   0.368017  -0.043371   0.366348  -0.125548
     8  C   -0.000300   0.651754   0.004375  -0.000998  -0.446198   0.044335
     9  C   -0.019137   0.020090   0.017075   0.000364  -0.588557  -0.096744
    10  H    0.004375   0.000029   0.002930   0.000029  -0.029166  -0.007917
    11  H    0.013698  -0.000212  -0.001467  -0.000001  -0.117467   0.022753
    12  C   -0.234837  -0.002965  -0.094229   0.016889   0.186067  -0.141982
    13  C    0.728241  -0.000015   0.000262   0.000442   0.066533   0.143566
    14  C   -0.000011  -0.056828  -0.046820  -0.000594  -0.020450  -0.004397
    15  H    0.000000   0.004840   0.004316  -0.000202   0.005266   0.004706
    16  H   -0.000000   0.001015  -0.003481   0.000520  -0.012368  -0.000229
    17  H    0.000000   0.020126   0.003664   0.000724   0.005816  -0.000433
    18  C   -0.000265  -0.099618  -0.000343   0.000017  -0.171037  -0.001580
    19  H   -0.000002   0.004275   0.000007  -0.000001   0.014056   0.000033
    20  H    0.000017  -0.000780   0.000014  -0.000001  -0.013251   0.000169
    21  H    0.000410   0.006461   0.000106   0.000000   0.072374  -0.001486
    22  C   -0.115258   0.000000   0.000184   0.000106   0.002059  -0.008985
    23  H    0.004339  -0.000000  -0.000007  -0.000050  -0.000424  -0.030011
    24  H    0.001792   0.000000   0.000032  -0.000016  -0.000072   0.010607
    25  H    0.009445   0.000000   0.000026  -0.000002  -0.000116  -0.001416
    26  C    0.000885   0.000005  -0.029290  -0.008813   0.000703   0.188329
    27  H   -0.000148  -0.000000   0.001566   0.000878   0.000128  -0.042313
    28  H   -0.000036   0.000000  -0.002635   0.000517   0.000368  -0.037256
    29  H    0.000022   0.000000   0.002894   0.001464  -0.000420  -0.050301
               7          8          9         10         11         12
     1  O   -0.000197  -0.000300  -0.019137   0.004375   0.013698  -0.234837
     2  O   -0.013811   0.651754   0.020090   0.000029  -0.000212  -0.002965
     3  N    0.368017   0.004375   0.017075   0.002930  -0.001467  -0.094229
     4  H   -0.043371  -0.000998   0.000364   0.000029  -0.000001   0.016889
     5  C    0.366348  -0.446198  -0.588557  -0.029166  -0.117467   0.186067
     6  C   -0.125548   0.044335  -0.096744  -0.007917   0.022753  -0.141982
     7  C    5.452903  -0.245873  -0.199902  -0.006084   0.017293   0.024811
     8  C   -0.245873   5.682895   0.155339  -0.000628  -0.005600  -0.067950
     9  C   -0.199902   0.155339   6.375057   0.395925   0.541083  -0.079810
    10  H   -0.006084  -0.000628   0.395925   0.539293  -0.035847  -0.015536
    11  H    0.017293  -0.005600   0.541083  -0.035847   0.503321  -0.103566
    12  C    0.024811  -0.067950  -0.079810  -0.015536  -0.103566   7.379706
    13  C    0.021679  -0.009858  -0.249979  -0.004970   0.000436  -0.457413
    14  C    0.220720  -0.079438   0.017170  -0.001293   0.000367   0.002006
    15  H   -0.059291   0.006461  -0.000960   0.000125  -0.000005  -0.000740
    16  H   -0.016766   0.005356  -0.000413  -0.000038   0.000051  -0.000097
    17  H   -0.048062  -0.020613   0.001502   0.000094  -0.000061  -0.000286
    18  C    0.015738   0.310681  -0.006030  -0.009864  -0.001157   0.007539
    19  H    0.000216  -0.043773  -0.001606   0.000269   0.000577  -0.000209
    20  H   -0.000920  -0.006845  -0.002009   0.000453  -0.000659  -0.001690
    21  H    0.004190  -0.115475  -0.015931   0.000302  -0.006698   0.005590
    22  C    0.000537  -0.000039   0.008687   0.001504   0.000637  -0.280721
    23  H    0.000000  -0.000003   0.002732  -0.000138  -0.000030   0.057907
    24  H   -0.000026   0.000004  -0.002156   0.000155  -0.000115  -0.005155
    25  H    0.000014   0.000001   0.000047  -0.000052  -0.000103   0.026959
    26  C    0.004074   0.000720   0.020554  -0.000497   0.000024  -0.078371
    27  H   -0.000742  -0.000004  -0.000896  -0.000038   0.000002  -0.003012
    28  H   -0.001107  -0.000013  -0.000153  -0.000024   0.000056  -0.018623
    29  H    0.003366   0.000008  -0.000616   0.000059  -0.000006   0.021965
              13         14         15         16         17         18
     1  O    0.728241  -0.000011   0.000000  -0.000000   0.000000  -0.000265
     2  O   -0.000015  -0.056828   0.004840   0.001015   0.020126  -0.099618
     3  N    0.000262  -0.046820   0.004316  -0.003481   0.003664  -0.000343
     4  H    0.000442  -0.000594  -0.000202   0.000520   0.000724   0.000017
     5  C    0.066533  -0.020450   0.005266  -0.012368   0.005816  -0.171037
     6  C    0.143566  -0.004397   0.004706  -0.000229  -0.000433  -0.001580
     7  C    0.021679   0.220720  -0.059291  -0.016766  -0.048062   0.015738
     8  C   -0.009858  -0.079438   0.006461   0.005356  -0.020613   0.310681
     9  C   -0.249979   0.017170  -0.000960  -0.000413   0.001502  -0.006030
    10  H   -0.004970  -0.001293   0.000125  -0.000038   0.000094  -0.009864
    11  H    0.000436   0.000367  -0.000005   0.000051  -0.000061  -0.001157
    12  C   -0.457413   0.002006  -0.000740  -0.000097  -0.000286   0.007539
    13  C    5.513585  -0.000004  -0.000020  -0.000025   0.000002   0.000881
    14  C   -0.000004   5.249452   0.384786   0.396274   0.421727  -0.000478
    15  H   -0.000020   0.384786   0.561385  -0.027919  -0.025630   0.000167
    16  H   -0.000025   0.396274  -0.027919   0.507434  -0.020779   0.000026
    17  H    0.000002   0.421727  -0.025630  -0.020779   0.481867   0.000680
    18  C    0.000881  -0.000478   0.000167   0.000026   0.000680   5.224301
    19  H   -0.000015   0.000009  -0.000001  -0.000013   0.000091   0.405383
    20  H   -0.000072  -0.000283  -0.000005   0.000016   0.000020   0.391658
    21  H    0.001439   0.000344  -0.000021  -0.000002  -0.000118   0.402256
    22  C    0.308590   0.000002   0.000002  -0.000002   0.000000   0.000016
    23  H   -0.081399   0.000001  -0.000000   0.000000   0.000000   0.000002
    24  H   -0.031052  -0.000001   0.000000  -0.000000  -0.000000  -0.000001
    25  H   -0.046562   0.000001  -0.000000  -0.000000  -0.000000  -0.000000
    26  C   -0.056743   0.000686  -0.000263  -0.000054   0.000025  -0.000010
    27  H   -0.006999   0.000073  -0.000012   0.000004  -0.000002   0.000000
    28  H    0.006397  -0.000053   0.000012  -0.000017   0.000002  -0.000000
    29  H   -0.000183  -0.000022   0.000079   0.000004   0.000001   0.000000
              19         20         21         22         23         24
     1  O   -0.000002   0.000017   0.000410  -0.115258   0.004339   0.001792
     2  O    0.004275  -0.000780   0.006461   0.000000  -0.000000   0.000000
     3  N    0.000007   0.000014   0.000106   0.000184  -0.000007   0.000032
     4  H   -0.000001  -0.000001   0.000000   0.000106  -0.000050  -0.000016
     5  C    0.014056  -0.013251   0.072374   0.002059  -0.000424  -0.000072
     6  C    0.000033   0.000169  -0.001486  -0.008985  -0.030011   0.010607
     7  C    0.000216  -0.000920   0.004190   0.000537   0.000000  -0.000026
     8  C   -0.043773  -0.006845  -0.115475  -0.000039  -0.000003   0.000004
     9  C   -0.001606  -0.002009  -0.015931   0.008687   0.002732  -0.002156
    10  H    0.000269   0.000453   0.000302   0.001504  -0.000138   0.000155
    11  H    0.000577  -0.000659  -0.006698   0.000637  -0.000030  -0.000115
    12  C   -0.000209  -0.001690   0.005590  -0.280721   0.057907  -0.005155
    13  C   -0.000015  -0.000072   0.001439   0.308590  -0.081399  -0.031052
    14  C    0.000009  -0.000283   0.000344   0.000002   0.000001  -0.000001
    15  H   -0.000001  -0.000005  -0.000021   0.000002  -0.000000   0.000000
    16  H   -0.000013   0.000016  -0.000002  -0.000002   0.000000  -0.000000
    17  H    0.000091   0.000020  -0.000118   0.000000   0.000000  -0.000000
    18  C    0.405383   0.391658   0.402256   0.000016   0.000002  -0.000001
    19  H    0.510071  -0.014831  -0.028440  -0.000000   0.000000   0.000000
    20  H   -0.014831   0.495641  -0.019062  -0.000003  -0.000000   0.000000
    21  H   -0.028440  -0.019062   0.534301   0.000035  -0.000000  -0.000001
    22  C   -0.000000  -0.000003   0.000035   5.431884   0.391315   0.403804
    23  H    0.000000  -0.000000  -0.000000   0.391315   0.540595  -0.027930
    24  H    0.000000   0.000000  -0.000001   0.403804  -0.027930   0.494950
    25  H   -0.000000  -0.000000  -0.000001   0.382113  -0.021264  -0.008243
    26  C    0.000000   0.000002  -0.000013  -0.034340   0.018096  -0.015593
    27  H   -0.000000   0.000000  -0.000000   0.011221  -0.009423  -0.001321
    28  H    0.000000  -0.000000  -0.000000  -0.012464  -0.001822   0.001415
    29  H    0.000000  -0.000000   0.000000   0.001763   0.000729   0.000187
              25         26         27         28         29
     1  O    0.009445   0.000885  -0.000148  -0.000036   0.000022
     2  O    0.000000   0.000005  -0.000000   0.000000   0.000000
     3  N    0.000026  -0.029290   0.001566  -0.002635   0.002894
     4  H   -0.000002  -0.008813   0.000878   0.000517   0.001464
     5  C   -0.000116   0.000703   0.000128   0.000368  -0.000420
     6  C   -0.001416   0.188329  -0.042313  -0.037256  -0.050301
     7  C    0.000014   0.004074  -0.000742  -0.001107   0.003366
     8  C    0.000001   0.000720  -0.000004  -0.000013   0.000008
     9  C    0.000047   0.020554  -0.000896  -0.000153  -0.000616
    10  H   -0.000052  -0.000497  -0.000038  -0.000024   0.000059
    11  H   -0.000103   0.000024   0.000002   0.000056  -0.000006
    12  C    0.026959  -0.078371  -0.003012  -0.018623   0.021965
    13  C   -0.046562  -0.056743  -0.006999   0.006397  -0.000183
    14  C    0.000001   0.000686   0.000073  -0.000053  -0.000022
    15  H   -0.000000  -0.000263  -0.000012   0.000012   0.000079
    16  H   -0.000000  -0.000054   0.000004  -0.000017   0.000004
    17  H   -0.000000   0.000025  -0.000002   0.000002   0.000001
    18  C   -0.000000  -0.000010   0.000000  -0.000000   0.000000
    19  H   -0.000000   0.000000  -0.000000   0.000000   0.000000
    20  H   -0.000000   0.000002   0.000000  -0.000000  -0.000000
    21  H   -0.000001  -0.000013  -0.000000  -0.000000   0.000000
    22  C    0.382113  -0.034340   0.011221  -0.012464   0.001763
    23  H   -0.021264   0.018096  -0.009423  -0.001822   0.000729
    24  H   -0.008243  -0.015593  -0.001321   0.001415   0.000187
    25  H    0.501285   0.001924   0.000784   0.000113  -0.000047
    26  C    0.001924   5.253165   0.419080   0.433962   0.389926
    27  H    0.000784   0.419080   0.513780  -0.027667  -0.025220
    28  H    0.000113   0.433962  -0.027667   0.477585  -0.016298
    29  H   -0.000047   0.389926  -0.025220  -0.016298   0.513816
 Mulliken charges:
               1
     1  O   -0.379512
     2  O   -0.423175
     3  N   -0.213492
     4  H    0.294168
     5  C   -0.112621
     6  C    0.289050
     7  C    0.261793
     8  C    0.181679
     9  C   -0.290726
    10  H    0.166552
    11  H    0.172696
    12  C   -0.142245
    13  C    0.153254
    14  C   -0.482948
    15  H    0.142924
    16  H    0.171505
    17  H    0.179644
    18  C   -0.468962
    19  H    0.153904
    20  H    0.172422
    21  H    0.159440
    22  C   -0.492649
    23  H    0.156784
    24  H    0.178737
    25  H    0.155096
    26  C   -0.508171
    27  H    0.170281
    28  H    0.197743
    29  H    0.156830
 Sum of Mulliken charges =  -0.00000
 Mulliken charges with hydrogens summed into heavy atoms:
               1
     1  O   -0.379512
     2  O   -0.423175
     3  N    0.080675
     5  C   -0.112621
     6  C    0.289050
     7  C    0.261793
     8  C    0.181679
     9  C    0.048521
    12  C   -0.142245
    13  C    0.153254
    14  C    0.011125
    18  C    0.016804
    22  C   -0.002031
    26  C    0.016683
 Electronic spatial extent (au):  <R**2>=           3213.6549
 Charge=             -0.0000 electrons
 Dipole moment (field-independent basis, Debye):
    X=             -4.6191    Y=              7.7453    Z=             -0.3704  Tot=              9.0257
 Quadrupole moment (field-independent basis, Debye-Ang):
   XX=           -100.8384   YY=            -78.2334   ZZ=            -84.5427
   XY=            -13.4311   XZ=             -3.9536   YZ=             -1.0772
 Traceless Quadrupole moment (field-independent basis, Debye-Ang):
   XX=            -12.9669   YY=              9.6381   ZZ=              3.3288
   XY=            -13.4311   XZ=             -3.9536   YZ=             -1.0772
 Octapole moment (field-independent basis, Debye-Ang**2):
  XXX=           -121.5621  YYY=             66.5563  ZZZ=              1.8749  XYY=             37.2018
  XXY=             30.5894  XXZ=             -9.6519  XZZ=             -2.2097  YZZ=             -0.7935
  YYZ=              1.8894  XYZ=              3.1773
 Hexadecapole moment (field-independent basis, Debye-Ang**3):
 XXXX=          -3150.6073 YYYY=          -1271.9249 ZZZZ=           -138.8369 XXXY=            -44.3144
 XXXZ=            -52.8546 YYYX=            -94.8938 YYYZ=            -16.9295 ZZZX=              3.5260
 ZZZY=              3.4377 XXYY=           -693.4105 XXZZ=           -489.2391 YYZZ=           -236.0451
 XXYZ=             -2.1784 YYXZ=             -4.2023 ZZXY=             -1.1404
 N-N= 8.996614504570D+02 E-N=-3.275249555848D+03  KE= 6.306661770299D+02
 No NMR shielding tensors so no spin-rotation constants.
 Leave Link  601 at Sat Jan 24 23:31:43 2026, MaxMem=  2147483648 cpu:               1.8 elap:               0.1
 (Enter /data/home/wyx/g16/l9999.exe)
 1\1\GINC-CN015\SP\RCAM-B3LYP\TZVP\C11H15N1O2\WYX\24-Jan-2026\0\\#p CAM
 -B3LYP TZVP em=gd3bj scrf=(Solvent=Water,NonEquilibrium=Read) Geom=Che
 ck Guess=Read\\Title Card Required\\0,1\O,0,2.757988,-1.556846,0.69794
 2\O,0,-3.318432,-1.658458,-0.919099\N,0,-0.679008,1.522195,0.015791\H,
 0,-0.986691,2.477782,-0.059774\C,0,-1.240545,-0.764858,-0.163619\C,0,0
 .656772,1.309271,0.210153\C,0,-1.609855,0.53875,-0.261129\C,0,-2.15240
 6,-1.82488,-0.46128\C,0,0.142357,-1.120184,0.325722\H,0,0.091423,-1.52
 7928,1.342268\H,0,0.559703,-1.919262,-0.286436\C,0,1.115198,0.035804,0
 .310449\C,0,2.5026,-0.374418,0.469468\C,0,-2.942056,1.071888,-0.644132
 \H,0,-3.214333,1.94351,-0.043202\H,0,-2.966862,1.376836,-1.692792\H,0,
 -3.752151,0.356231,-0.520849\C,0,-1.793861,-3.260932,-0.229849\H,0,-2.
 638627,-3.875619,0.084155\H,0,-1.403977,-3.715366,-1.145791\H,0,-1.022
 193,-3.401523,0.52573\C,0,3.66484,0.57792,0.336114\H,0,3.560651,1.2646
 77,-0.499761\H,0,3.784878,1.168252,1.245542\H,0,4.561771,-0.021814,0.2
 02152\C,0,1.435664,2.587414,0.279899\H,0,2.192886,2.568609,1.055322\H,
 0,1.924335,2.801646,-0.670939\H,0,0.769929,3.421304,0.497944\\Version=
 ES64L-G16RevA.03\State=1-A\HF=-633.3246621\RMSD=8.491e-09\Dipole=0.620
 2548,3.4905285,0.2021281\Quadrupole=-12.3592668,11.6276442,0.7316226,2
 .1035721,-5.9607224,-0.0401303\PG=C01 [X(C11H15N1O2)]\\@


 ALL PAPERS THAT YOU SAVE WILL NEVER BE NEEDED UNTIL
 SUCH TIME AS THEY ARE DISPOSED OF, WHEN THEY BECOME
 ESSENTIAL.

           -- JOHN CORCORAN IN
              PAUL DICKSON'S "THE OFFICIAL RULES"
 Job cpu time:       0 days  0 hours 14 minutes  7.2 seconds.
 Elapsed time:       0 days  0 hours  0 minutes 54.2 seconds.
 File lengths (MBytes):  RWF=    344 Int=      0 D2E=      0 Chk=     67 Scr=      1
 Normal termination of Gaussian 16 at Sat Jan 24 23:31:44 2026.
