 Entering Gaussian System, Link 0=g16
 Input=DDL-LR-13.gjf
 Output=DDL-LR-13.log
 Initial command:
 /data/home/wyx/g16/l1.exe "/scr/tmp/wyx/13119/Gau-1513513.inp" -scrdir="/scr/tmp/wyx/13119/"
 Entering Link 1 = /data/home/wyx/g16/l1.exe PID=   1513514.
  
 Copyright (c) 1988,1990,1992,1993,1995,1998,2003,2009,2016,
            Gaussian, Inc.  All Rights Reserved.
  
 This is part of the Gaussian(R) 16 program.  It is based on
 the Gaussian(R) 09 system (copyright 2009, Gaussian, Inc.),
 the Gaussian(R) 03 system (copyright 2003, Gaussian, Inc.),
 the Gaussian(R) 98 system (copyright 1998, Gaussian, Inc.),
 the Gaussian(R) 94 system (copyright 1995, Gaussian, Inc.),
 the Gaussian 92(TM) system (copyright 1992, Gaussian, Inc.),
 the Gaussian 90(TM) system (copyright 1990, Gaussian, Inc.),
 the Gaussian 88(TM) system (copyright 1988, Gaussian, Inc.),
 the Gaussian 86(TM) system (copyright 1986, Carnegie Mellon
 University), and the Gaussian 82(TM) system (copyright 1983,
 Carnegie Mellon University). Gaussian is a federally registered
 trademark of Gaussian, Inc.
  
 This software contains proprietary and confidential information,
 including trade secrets, belonging to Gaussian, Inc.
  
 This software is provided under written license and may be
 used, copied, transmitted, or stored only in accord with that
 written license.
  
 The following legend is applicable only to US Government
 contracts under FAR:
  
                    RESTRICTED RIGHTS LEGEND
  
 Use, reproduction and disclosure by the US Government is
 subject to restrictions as set forth in subparagraphs (a)
 and (c) of the Commercial Computer Software - Restricted
 Rights clause in FAR 52.227-19.
  
 Gaussian, Inc.
 340 Quinnipiac St., Bldg. 40, Wallingford CT 06492
  
  
 ---------------------------------------------------------------
 Warning -- This program may not be used in any manner that
 competes with the business of Gaussian, Inc. or will provide
 assistance to any competitor of Gaussian, Inc.  The licensee
 of this program is prohibited from giving any competitor of
 Gaussian, Inc. access to this program.  By using this program,
 the user acknowledges that Gaussian, Inc. is engaged in the
 business of creating and licensing software in the field of
 computational chemistry and represents and warrants to the
 licensee that it is not a competitor of Gaussian, Inc. and that
 it will not use this program in any manner prohibited above.
 ---------------------------------------------------------------
  

 Cite this work as:
 Gaussian 16, Revision A.03,
 M. J. Frisch, G. W. Trucks, H. B. Schlegel, G. E. Scuseria, 
 M. A. Robb, J. R. Cheeseman, G. Scalmani, V. Barone, 
 G. A. Petersson, H. Nakatsuji, X. Li, M. Caricato, A. V. Marenich, 
 J. Bloino, B. G. Janesko, R. Gomperts, B. Mennucci, H. P. Hratchian, 
 J. V. Ortiz, A. F. Izmaylov, J. L. Sonnenberg, D. Williams-Young, 
 F. Ding, F. Lipparini, F. Egidi, J. Goings, B. Peng, A. Petrone, 
 T. Henderson, D. Ranasinghe, V. G. Zakrzewski, J. Gao, N. Rega, 
 G. Zheng, W. Liang, M. Hada, M. Ehara, K. Toyota, R. Fukuda, 
 J. Hasegawa, M. Ishida, T. Nakajima, Y. Honda, O. Kitao, H. Nakai, 
 T. Vreven, K. Throssell, J. A. Montgomery, Jr., J. E. Peralta, 
 F. Ogliaro, M. J. Bearpark, J. J. Heyd, E. N. Brothers, K. N. Kudin, 
 V. N. Staroverov, T. A. Keith, R. Kobayashi, J. Normand, 
 K. Raghavachari, A. P. Rendell, J. C. Burant, S. S. Iyengar, 
 J. Tomasi, M. Cossi, J. M. Millam, M. Klene, C. Adamo, R. Cammi, 
 J. W. Ochterski, R. L. Martin, K. Morokuma, O. Farkas, 
 J. B. Foresman, and D. J. Fox, Gaussian, Inc., Wallingford CT, 2016.
 
 ******************************************
 Gaussian 16:  ES64L-G16RevA.03 25-Dec-2016
                24-Jan-2026 
 ******************************************
 %nprocshared=16
 Will use up to   16 processors via shared memory.
 %mem=16GB
 %chk=DDL-LR-13.chk
 --------------------------------------------------------------------
 #p CAM-B3LYP TZVP em=gd3bj td(nstates=6,root=1) scrf=(Solvent=Water)
 --------------------------------------------------------------------
 1/38=1,172=1/1;
 2/12=2,17=6,18=5,40=1/2;
 3/5=19,7=101,11=9,25=1,30=1,70=2201,72=1,74=-40,124=41/1,2,3,8;
 4//1;
 5/5=2,38=5,53=1/2;
 8/6=1,10=1,107=1,108=6/1;
 9/8=1,41=6,42=1,70=2/14;
 6/7=2,8=2,9=2,10=2/1;
 99/5=1,9=1/99;
 Leave Link    1 at Sat Jan 24 16:36:24 2026, MaxMem=  2147483648 cpu:               0.4 elap:               0.1
 (Enter /data/home/wyx/g16/l101.exe)
 -------------------
 Title Card Required
 -------------------
 Symbolic Z-matrix:
 Charge =  0 Multiplicity = 1
 O                     2.75143  -1.55856   0.71901 
 O                    -3.25843  -1.64507  -1.0548 
 N                    -0.69907   1.51704   0.09358 
 H                    -1.00532   2.47406   0.02903 
 C                    -1.24472  -0.75967  -0.15562 
 C                     0.64748   1.30193   0.26018 
 C                    -1.6145    0.54076  -0.23632 
 C                    -2.15291  -1.8274   -0.52268 
 C                     0.11248  -1.11321   0.40448 
 H                     0.01994  -1.45927   1.44188 
 H                     0.53764  -1.95444  -0.1395 
 C                     1.10077   0.02901   0.34481 
 C                     2.4962   -0.38473   0.45975 
 C                    -2.93912   1.07652  -0.65752 
 H                    -3.11264   2.06891  -0.23832 
 H                    -3.00196   1.15802  -1.74373 
 H                    -3.76453   0.43985  -0.35058 
 C                    -1.75563  -3.24858  -0.24353 
 H                    -2.61521  -3.91627  -0.26068 
 H                    -1.0514   -3.60665  -0.9994 
 H                    -1.25934  -3.3705    0.71967 
 C                     3.65479   0.5549    0.23561 
 H                     3.49213   1.24609  -0.58704 
 H                     3.85125   1.13896   1.13606 
 H                     4.53359  -0.05222   0.03197 
 C                     1.42614   2.58051   0.31981 
 H                     2.24235   2.53701   1.03087 
 H                     1.83468   2.83411  -0.65926 
 H                     0.77392   3.39887   0.62226 
 
 ITRead=  0  0  0  0  0  0  0  0  0  0  0  0  0  0  0  0  0  0  0  0
 ITRead=  0  0  0  0  0  0  0  0  0
 MicOpt= -1 -1 -1 -1 -1 -1 -1 -1 -1 -1 -1 -1 -1 -1 -1 -1 -1 -1 -1 -1
 MicOpt= -1 -1 -1 -1 -1 -1 -1 -1 -1
 NAtoms=     29 NQM=       29 NQMF=       0 NMMI=      0 NMMIF=      0
                NMic=       0 NMicF=      0.
                    Isotopes and Nuclear Properties:
 (Nuclear quadrupole moments (NQMom) in fm**2, nuclear magnetic moments (NMagM)
  in nuclear magnetons)

  Atom         1           2           3           4           5           6           7           8           9          10
 IAtWgt=          16          16          14           1          12          12          12          12          12           1
 AtmWgt=  15.9949146  15.9949146  14.0030740   1.0078250  12.0000000  12.0000000  12.0000000  12.0000000  12.0000000   1.0078250
 NucSpn=           0           0           2           1           0           0           0           0           0           1
 AtZEff=  -0.0000000  -0.0000000  -0.0000000  -0.0000000  -0.0000000  -0.0000000  -0.0000000  -0.0000000  -0.0000000  -0.0000000
 NQMom=    0.0000000   0.0000000   2.0440000   0.0000000   0.0000000   0.0000000   0.0000000   0.0000000   0.0000000   0.0000000
 NMagM=    0.0000000   0.0000000   0.4037610   2.7928460   0.0000000   0.0000000   0.0000000   0.0000000   0.0000000   2.7928460
 AtZNuc=   8.0000000   8.0000000   7.0000000   1.0000000   6.0000000   6.0000000   6.0000000   6.0000000   6.0000000   1.0000000

  Atom        11          12          13          14          15          16          17          18          19          20
 IAtWgt=           1          12          12          12           1           1           1          12           1           1
 AtmWgt=   1.0078250  12.0000000  12.0000000  12.0000000   1.0078250   1.0078250   1.0078250  12.0000000   1.0078250   1.0078250
 NucSpn=           1           0           0           0           1           1           1           0           1           1
 AtZEff=  -0.0000000  -0.0000000  -0.0000000  -0.0000000  -0.0000000  -0.0000000  -0.0000000  -0.0000000  -0.0000000  -0.0000000
 NQMom=    0.0000000   0.0000000   0.0000000   0.0000000   0.0000000   0.0000000   0.0000000   0.0000000   0.0000000   0.0000000
 NMagM=    2.7928460   0.0000000   0.0000000   0.0000000   2.7928460   2.7928460   2.7928460   0.0000000   2.7928460   2.7928460
 AtZNuc=   1.0000000   6.0000000   6.0000000   6.0000000   1.0000000   1.0000000   1.0000000   6.0000000   1.0000000   1.0000000

  Atom        21          22          23          24          25          26          27          28          29
 IAtWgt=           1          12           1           1           1          12           1           1           1
 AtmWgt=   1.0078250  12.0000000   1.0078250   1.0078250   1.0078250  12.0000000   1.0078250   1.0078250   1.0078250
 NucSpn=           1           0           1           1           1           0           1           1           1
 AtZEff=  -0.0000000  -0.0000000  -0.0000000  -0.0000000  -0.0000000  -0.0000000  -0.0000000  -0.0000000  -0.0000000
 NQMom=    0.0000000   0.0000000   0.0000000   0.0000000   0.0000000   0.0000000   0.0000000   0.0000000   0.0000000
 NMagM=    2.7928460   0.0000000   2.7928460   2.7928460   2.7928460   0.0000000   2.7928460   2.7928460   2.7928460
 AtZNuc=   1.0000000   6.0000000   1.0000000   1.0000000   1.0000000   6.0000000   1.0000000   1.0000000   1.0000000
 Leave Link  101 at Sat Jan 24 16:36:25 2026, MaxMem=  2147483648 cpu:               0.8 elap:               0.1
 (Enter /data/home/wyx/g16/l202.exe)
                          Input orientation:                          
 ---------------------------------------------------------------------
 Center     Atomic      Atomic             Coordinates (Angstroms)
 Number     Number       Type             X           Y           Z
 ---------------------------------------------------------------------
      1          8           0        2.751427   -1.558562    0.719013
      2          8           0       -3.258428   -1.645069   -1.054801
      3          7           0       -0.699066    1.517043    0.093581
      4          1           0       -1.005316    2.474055    0.029032
      5          6           0       -1.244722   -0.759673   -0.155624
      6          6           0        0.647479    1.301933    0.260181
      7          6           0       -1.614499    0.540755   -0.236315
      8          6           0       -2.152913   -1.827403   -0.522681
      9          6           0        0.112483   -1.113209    0.404481
     10          1           0        0.019936   -1.459270    1.441882
     11          1           0        0.537635   -1.954435   -0.139500
     12          6           0        1.100768    0.029010    0.344807
     13          6           0        2.496203   -0.384727    0.459747
     14          6           0       -2.939123    1.076525   -0.657522
     15          1           0       -3.112635    2.068912   -0.238316
     16          1           0       -3.001956    1.158024   -1.743732
     17          1           0       -3.764526    0.439851   -0.350575
     18          6           0       -1.755626   -3.248584   -0.243533
     19          1           0       -2.615211   -3.916270   -0.260681
     20          1           0       -1.051400   -3.606649   -0.999397
     21          1           0       -1.259343   -3.370497    0.719669
     22          6           0        3.654785    0.554903    0.235611
     23          1           0        3.492126    1.246089   -0.587038
     24          1           0        3.851247    1.138957    1.136057
     25          1           0        4.533589   -0.052217    0.031970
     26          6           0        1.426143    2.580507    0.319808
     27          1           0        2.242352    2.537014    1.030873
     28          1           0        1.834675    2.834114   -0.659257
     29          1           0        0.773917    3.398872    0.622258
 ---------------------------------------------------------------------
                    Distance matrix (angstroms):
                    1          2          3          4          5
     1  O    0.000000
     2  O    6.266758   0.000000
     3  N    4.664377   4.227064   0.000000
     4  H    5.554385   4.818546   1.006890   0.000000
     5  C    4.168024   2.376438   2.354417   3.247832   0.000000
     6  C    3.580441   5.066568   1.373758   2.039370   2.829052
     7  C    4.937721   2.854864   1.378400   2.044300   1.354385
     8  C    5.066224   1.240387   3.698482   4.485968   1.448996
     9  C    2.694679   3.711525   2.770108   3.776096   1.510202
    10  H    2.827268   4.124999   3.345642   4.303293   2.154257
    11  H    2.407205   3.917088   3.692549   4.692614   2.145813
    12  C    2.320580   4.874837   2.348778   3.242460   2.524634
    13  C    1.228921   6.082606   3.736382   4.540791   3.809696
    14  C    6.420350   2.768910   2.403345   2.482752   2.548435
    15  H    6.961485   3.805464   2.498005   2.162501   3.390698
    16  H    6.822490   2.897884   2.967813   2.976777   3.047543
    17  H    6.898936   2.258088   3.279430   3.448960   2.797548
    18  C    4.908788   2.342612   4.892971   5.778049   2.542327
    19  H    5.943012   2.490524   5.772175   6.596359   3.442874
    20  H    4.648557   2.953276   5.250806   6.167232   2.975668
    21  H    4.401066   3.181538   4.959228   5.890696   2.753680
    22  C    2.348716   7.368687   4.461155   5.044042   5.087862
    23  H    3.181269   7.358504   4.254733   4.702598   5.162066
    24  H    2.942811   7.943434   4.683487   5.156956   5.589466
    25  H    2.432531   8.027065   5.463245   6.087818   5.824480
    26  C    4.364360   6.456799   2.387184   2.451097   4.303064
    27  H    4.138859   7.217925   3.251276   3.399264   4.943238
    28  H    4.694216   6.794059   2.953182   2.944305   4.759374
    29  H    5.338170   6.671857   2.447541   2.091142   4.687590
                    6          7          8          9         10
     6  C    0.000000
     7  C    2.437713   0.000000
     8  C    4.271746   2.445418   0.000000
     9  C    2.477893   2.475618   2.549847   0.000000
    10  H    3.068301   3.080231   2.952338   1.097508   0.000000
    11  H    3.282643   3.296517   2.720664   1.088270   1.736079
    12  C    1.353871   2.823519   3.845159   1.511599   2.141670
    13  C    2.510464   4.270701   4.965960   2.493163   2.872478
    14  C    3.709003   1.489662   3.011496   3.903215   4.426487
    15  H    3.869782   2.140019   4.022835   4.576076   5.008406
    16  H    4.165904   2.139711   3.335358   4.412828   5.111770
    17  H    4.536739   2.155424   2.786998   4.244208   4.598012
    18  C    5.170672   3.791973   1.501838   2.910254   3.032307
    19  H    6.176252   4.568051   2.155395   3.967355   3.984918
    20  H    5.344802   4.254449   2.146231   3.089133   3.423279
    21  H    5.067416   4.042021   2.173256   2.660188   2.410588
    22  C    3.098798   5.290394   6.322954   3.919058   4.327136
    23  H    2.968655   5.167023   6.427827   4.239267   4.846812
    24  H    3.325334   5.667065   6.899322   4.425586   4.639316
    25  H    4.121608   6.182441   6.940334   4.561869   4.933631
    26  C    1.498207   3.703426   5.740131   3.921277   4.422247
    27  H    2.159401   4.523949   6.385924   4.272334   4.591116
    28  H    2.145316   4.163553   6.135899   4.436084   5.112847
    29  H    2.131722   3.822370   6.098456   4.565501   4.984156
                   11         12         13         14         15
    11  H    0.000000
    12  C    2.117953   0.000000
    13  C    2.580517   1.460010   0.000000
    14  C    4.641434   4.292164   5.738146   0.000000
    15  H    5.433374   4.717414   6.161712   1.091179   0.000000
    16  H    4.978922   4.740149   6.120878   1.091074   1.763021
    17  H    4.928057   4.931879   6.366575   1.086674   1.758239
    18  C    2.635278   4.387226   5.174392   4.503179   5.487920
    19  H    3.715363   5.453471   6.254388   5.019004   6.005858
    20  H    2.448319   4.433591   5.009528   5.060879   6.086044
    21  H    2.443877   4.155393   4.804842   4.949174   5.825770
    22  C    4.019218   2.609883   1.508461   6.674534   6.950885
    23  H    4.378660   2.840459   2.178803   6.433870   6.664947
    24  H    4.709155   3.069722   2.148291   7.023528   7.158867
    25  H    4.428937   3.448003   2.108198   7.588866   7.939583
    26  C    4.643933   2.572281   3.155507   4.719394   4.601493
    27  H    4.944588   2.839716   2.987841   5.641931   5.523210
    28  H    4.988252   3.068448   3.471416   5.087069   5.023804
    29  H    5.412393   3.397025   4.160325   4.562653   4.196983
                   16         17         18         19         20
    16  H    0.000000
    17  H    1.743035   0.000000
    18  C    4.818934   4.201391   0.000000
    19  H    5.300705   4.506084   1.088570   0.000000
    20  H    5.202001   4.914894   1.093378   1.757006   0.000000
    21  H    5.441741   4.684028   1.090375   1.759924   1.747626
    22  C    6.970922   7.443321   6.630885   7.716900   6.402495
    23  H    6.596878   7.305131   6.918019   8.003501   6.660536
    24  H    7.433703   7.790945   7.251952   8.325940   7.149608
    25  H    7.835958   8.321489   7.060233   8.131537   6.699986
    26  C    5.088194   5.654632   6.664781   7.673175   6.794072
    27  H    6.091208   6.510689   7.147103   8.179786   7.260537
    28  H    5.232434   6.097445   7.075472   8.094939   7.066014
    29  H    4.987637   5.504514   7.164974   8.110307   7.418819
                   21         22         23         24         25
    21  H    0.000000
    22  C    6.308069   0.000000
    23  H    6.752541   1.086714   0.000000
    24  H    6.828373   1.091109   1.763378   0.000000
    25  H    6.711332   1.087364   1.775786   1.761674   0.000000
    26  C    6.541114   3.012807   2.621322   2.936913   4.082929
    27  H    6.874402   2.560502   2.417862   2.134050   3.598846
    28  H    7.069058   3.050966   2.296559   3.187989   4.011588
    29  H    7.068804   4.066578   3.672265   3.852423   5.137469
                   26         27         28         29
    26  C    0.000000
    27  H    1.083375   0.000000
    28  H    1.090772   1.763805   0.000000
    29  H    1.089310   1.751019   1.756827   0.000000
 Stoichiometry    C11H15NO2
 Framework group  C1[X(C11H15NO2)]
 Deg. of freedom    81
 Full point group                 C1      NOp   1
 Largest Abelian subgroup         C1      NOp   1
 Largest concise Abelian subgroup C1      NOp   1
                         Standard orientation:                         
 ---------------------------------------------------------------------
 Center     Atomic      Atomic             Coordinates (Angstroms)
 Number     Number       Type             X           Y           Z
 ---------------------------------------------------------------------
      1          8           0       -2.280155   -2.289459   -0.152831
      2          8           0        3.611445   -0.232782    0.422830
      3          7           0       -0.037249    1.799550   -0.228880
      4          1           0       -0.070525    2.805887   -0.231368
      5          6           0        1.289588   -0.139279   -0.074861
      6          6           0       -1.235562    1.135136   -0.129832
      7          6           0        1.200342    1.212162   -0.076140
      8          6           0        2.558463   -0.812319    0.116354
      9          6           0        0.057997   -0.965867   -0.358845
     10          1           0        0.075086   -1.335333   -1.392154
     11          1           0        0.051485   -1.859030    0.262885
     12          6           0       -1.233455   -0.218667   -0.116409
     13          6           0       -2.399625   -1.082323    0.044133
     14          6           0        2.314562    2.189022    0.076674
     15          1           0        2.059731    3.149139   -0.374887
     16          1           0        2.540054    2.365379    1.129525
     17          1           0        3.238382    1.844472   -0.380166
     18          6           0        2.627936   -2.300815   -0.070908
     19          1           0        3.652196   -2.639575   -0.216227
     20          1           0        2.236889   -2.817912    0.809528
     21          1           0        2.038627   -2.651147   -0.918788
     22          6           0       -3.749259   -0.570498    0.482284
     23          1           0       -3.687656    0.193020    1.253123
     24          1           0       -4.292227   -0.152669   -0.366906
     25          1           0       -4.315480   -1.420035    0.856506
     26          6           0       -2.401784    2.071896   -0.045985
     27          1           0       -3.267622    1.706573   -0.585025
     28          1           0       -2.689177    2.244610    0.991974
     29          1           0       -2.134569    3.037013   -0.474638
 ---------------------------------------------------------------------
 Rotational constants (GHZ):           1.0864139           0.4884015           0.3453737
 Leave Link  202 at Sat Jan 24 16:36:25 2026, MaxMem=  2147483648 cpu:               0.0 elap:               0.0
 (Enter /data/home/wyx/g16/l301.exe)
 Standard basis: TZVP (5D, 7F)
 Ernie: Thresh=  0.10000D-02 Tol=  0.10000D-05 Strict=F.
 There are   370 symmetry adapted cartesian basis functions of A   symmetry.
 There are   356 symmetry adapted basis functions of A   symmetry.
   356 basis functions,   610 primitive gaussians,   370 cartesian basis functions
    52 alpha electrons       52 beta electrons
       nuclear repulsion energy       900.5158012683 Hartrees.
 IExCor=20419 DFT=T Ex+Corr=CAM-B3LYP ExCW=0 ScaHFX=  1.000000
 ScaDFX=  1.000000  1.000000  1.000000  0.810000 ScalE2=  1.000000  1.000000
 IRadAn=      5 IRanWt=     -1 IRanGd=            0 ICorTp=0 IEmpDi=141
 HFx  wShort=  0.000000 wLong=  0.330000 cFull=  0.190000 cShort=  0.000000 cLong=  0.460000
 DFx  wShort=  0.000000 wLong=  0.330000 cFull=  0.190000 cShort=  0.000000 cLong=  0.460000
 NAtoms=   29 NActive=   29 NUniq=   29 SFac= 1.00D+00 NAtFMM=   60 NAOKFM=F Big=F
 Integral buffers will be    131072 words long.
 Raffenetti 1 integral format.
 Two-electron integral symmetry is turned on.
 R6Disp:  Grimme-D3(BJ) Dispersion energy=       -0.0261834868 Hartrees.
 Nuclear repulsion after empirical dispersion term =      900.4896177815 Hartrees.
 ------------------------------------------------------------------------------
 Polarizable Continuum Model (PCM)
 =================================
 Model                : PCM.
 Atomic radii         : UFF (Universal Force Field).
 Polarization charges : Total charges.
 Charge compensation  : None.
 Solution method      : On-the-fly selection.
 Cavity type          : Scaled VdW (van der Waals Surface) (Alpha=1.100).
 Cavity algorithm     : GePol (No added spheres)
                        Default sphere list used, NSphG=   29.
                        Lebedev-Laikov grids with approx.  5.0 points / Ang**2.
                        Smoothing algorithm: York/Karplus (Gamma=1.0000).
                        Polarization charges: spherical gaussians, with
                                              point-specific exponents (IZeta= 3).
                        Self-potential: point-specific (ISelfS= 7).
                        Self-field    : sphere-specific E.n sum rule (ISelfD= 2).
 Solvent              : Water, Eps=  78.355300 Eps(inf)=   1.777849
 ------------------------------------------------------------------------------
 GePol: Number of generator spheres                  =      29
 GePol: Total number of spheres                      =      29
 GePol: Number of exposed spheres                    =      29 (100.00%)
 GePol: Number of points                             =    2108
 GePol: Average weight of points                     =       0.13
 GePol: Minimum weight of points                     =   0.20D-08
 GePol: Maximum weight of points                     =    0.20577
 GePol: Number of points with low weight             =     140
 GePol: Fraction of low-weight points (<1% of avg)   =       6.64%
 GePol: Cavity surface area                          =    268.438 Ang**2
 GePol: Cavity volume                                =    286.035 Ang**3
 Leave Link  301 at Sat Jan 24 16:36:25 2026, MaxMem=  2147483648 cpu:               0.6 elap:               0.0
 (Enter /data/home/wyx/g16/l302.exe)
 NPDir=0 NMtPBC=     1 NCelOv=     1 NCel=       1 NClECP=     1 NCelD=      1
         NCelK=      1 NCelE2=     1 NClLst=     1 CellRange=     0.0.
 One-electron integrals computed using PRISM.
 One-electron integral symmetry used in STVInt
 NBasis=   356 RedAO= T EigKep=  4.50D-05  NBF=   356
 NBsUse=   356 1.00D-06 EigRej= -1.00D+00 NBFU=   356
 Precomputing XC quadrature grid using
 IXCGrd= 4 IRadAn=           5 IRanWt=          -1 IRanGd=           0 AccXCQ= 0.00D+00.
 Generated NRdTot=       0 NPtTot=           0 NUsed=           0 NTot=          32
 NSgBfM=   366   366   366   366   366 MxSgAt=    29 MxSgA2=    29.
 Leave Link  302 at Sat Jan 24 16:36:25 2026, MaxMem=  2147483648 cpu:               3.1 elap:               0.2
 (Enter /data/home/wyx/g16/l303.exe)
 DipDrv:  MaxL=1.
 Leave Link  303 at Sat Jan 24 16:36:25 2026, MaxMem=  2147483648 cpu:               0.5 elap:               0.0
 (Enter /data/home/wyx/g16/l308.exe)
 Leave Link  308 at Sat Jan 24 16:36:26 2026, MaxMem=  2147483648 cpu:               0.7 elap:               0.1
 (Enter /data/home/wyx/g16/l401.exe)
 ExpMin= 9.52D-02 ExpMax= 2.70D+04 ExpMxC= 9.22D+02 IAcc=3 IRadAn=         5 AccDes= 0.00D+00
 Harris functional with IExCor=20419 and IRadAn=       5 diagonalized for initial guess.
 HarFok:  IExCor=20419 AccDes= 0.00D+00 IRadAn=         5 IDoV= 1 UseB2=F ITyADJ=14
 ICtDFT=  3500011 ScaDFX=  1.000000  1.000000  1.000000  1.000000
 FoFCou: FMM=F IPFlag=           0 FMFlag=      100000 FMFlg1=           0
         NFxFlg=           0 DoJE=T BraDBF=F KetDBF=T FulRan=T
         wScrn=  0.000000 ICntrl=       500 IOpCl=  0 I1Cent=   200000004 NGrid=           0
         NMat0=    1 NMatS0=      1 NMatT0=    0 NMatD0=    1 NMtDS0=    0 NMtDT0=    0
 Petite list used in FoFCou.
 Harris En= -608.713178388664    
 JPrj=0 DoOrth=F DoCkMO=F.
 Leave Link  401 at Sat Jan 24 16:36:26 2026, MaxMem=  2147483648 cpu:              11.8 elap:               0.8
 (Enter /data/home/wyx/g16/l502.exe)
 Integral symmetry usage will be decided dynamically.
 Closed shell SCF:
 Using DIIS extrapolation, IDIIS=  1040.
 NGot=  2147483648 LenX=  2147200095 LenY=  2147062754
 Requested convergence on RMS density matrix=1.00D-08 within 128 cycles.
 Requested convergence on MAX density matrix=1.00D-06.
 Requested convergence on             energy=1.00D-06.
 No special actions if energy rises.
 Fock matrices will be formed incrementally for  20 cycles.

 Cycle   1  Pass 1  IDiag  1:
 FoFJK:  IHMeth= 1 ICntrl=       0 DoSepK=T KAlg= 0 I1Cent=           0 FoldK=F
 IRaf=         1 NMat=       1 IRICut=       1 DoRegI=T DoRafI=F ISym2E= 0 IDoP0=0 IntGTp=1.
 FoFCou: FMM=F IPFlag=           0 FMFlag=      100000 FMFlg1=           0
         NFxFlg=           0 DoJE=T BraDBF=F KetDBF=F FulRan=T
         wScrn=  0.000000 ICntrl=       500 IOpCl=  0 I1Cent=           0 NGrid=           0
         NMat0=    1 NMatS0=      1 NMatT0=    0 NMatD0=    1 NMtDS0=    0 NMtDT0=    0
 Symmetry not used in FoFCou.
 Inv3:  Mode=1 IEnd=    13330992.
 Iteration    1 A*A^-1 deviation from unit magnitude is 4.11D-15 for    669.
 Iteration    1 A*A^-1 deviation from orthogonality  is 2.07D-15 for   1781    161.
 Iteration    1 A^-1*A deviation from unit magnitude is 3.66D-15 for    669.
 Iteration    1 A^-1*A deviation from orthogonality  is 2.44D-15 for   1933     66.
 E= -633.135165992337    
 DIIS: error= 4.14D-02 at cycle   1 NSaved=   1.
 NSaved= 1 IEnMin= 1 EnMin= -633.135165992337     IErMin= 1 ErrMin= 4.14D-02
 ErrMax= 4.14D-02  0.00D+00 EMaxC= 1.00D-01 BMatC= 1.09D+00 BMatP= 1.09D+00
 IDIUse=3 WtCom= 5.86D-01 WtEn= 4.14D-01
 Coeff-Com:  0.100D+01
 Coeff-En:   0.100D+01
 Coeff:      0.100D+01
 Gap=     0.231 Goal=   None    Shift=    0.000
 GapD=    0.231 DampG=1.000 DampE=0.500 DampFc=0.5000 IDamp=-1.
 Damping current iteration by 5.00D-01
 RMSDP=4.07D-03 MaxDP=1.79D-01              OVMax= 1.38D-01

 Cycle   2  Pass 1  IDiag  1:
 RMSU=  1.78D-03    CP:  9.27D-01
 E= -633.230204996856     Delta-E=       -0.095039004520 Rises=F Damp=T
 DIIS: error= 1.89D-02 at cycle   2 NSaved=   2.
 NSaved= 2 IEnMin= 2 EnMin= -633.230204996856     IErMin= 2 ErrMin= 1.89D-02
 ErrMax= 1.89D-02  0.00D+00 EMaxC= 1.00D-01 BMatC= 2.23D-01 BMatP= 1.09D+00
 IDIUse=3 WtCom= 8.11D-01 WtEn= 1.89D-01
 Coeff-Com: -0.597D+00 0.160D+01
 Coeff-En:   0.000D+00 0.100D+01
 Coeff:     -0.484D+00 0.148D+01
 Gap=     0.245 Goal=   None    Shift=    0.000
 RMSDP=1.43D-03 MaxDP=4.34D-02 DE=-9.50D-02 OVMax= 1.32D-01

 Cycle   3  Pass 1  IDiag  1:
 RMSU=  1.33D-03    CP:  9.06D-01  1.24D+00
 E= -633.279415913326     Delta-E=       -0.049210916470 Rises=F Damp=F
 DIIS: error= 1.14D-02 at cycle   3 NSaved=   3.
 NSaved= 3 IEnMin= 3 EnMin= -633.279415913326     IErMin= 3 ErrMin= 1.14D-02
 ErrMax= 1.14D-02  0.00D+00 EMaxC= 1.00D-01 BMatC= 6.26D-02 BMatP= 2.23D-01
 IDIUse=3 WtCom= 8.86D-01 WtEn= 1.14D-01
 Coeff-Com: -0.364D+00 0.798D+00 0.567D+00
 Coeff-En:   0.000D+00 0.000D+00 0.100D+01
 Coeff:     -0.323D+00 0.707D+00 0.616D+00
 Gap=     0.242 Goal=   None    Shift=    0.000
 RMSDP=1.38D-03 MaxDP=7.24D-02 DE=-4.92D-02 OVMax= 7.31D-02

 Cycle   4  Pass 1  IDiag  1:
 RMSU=  5.04D-04    CP:  8.55D-01  1.74D+00  5.35D-01
 E= -633.326158293890     Delta-E=       -0.046742380563 Rises=F Damp=F
 DIIS: error= 3.87D-03 at cycle   4 NSaved=   4.
 NSaved= 4 IEnMin= 4 EnMin= -633.326158293890     IErMin= 4 ErrMin= 3.87D-03
 ErrMax= 3.87D-03  0.00D+00 EMaxC= 1.00D-01 BMatC= 6.41D-03 BMatP= 6.26D-02
 IDIUse=3 WtCom= 9.61D-01 WtEn= 3.87D-02
 Coeff-Com: -0.169D+00 0.366D+00 0.358D+00 0.445D+00
 Coeff-En:   0.000D+00 0.000D+00 0.428D-02 0.996D+00
 Coeff:     -0.163D+00 0.352D+00 0.344D+00 0.467D+00
 Gap=     0.237 Goal=   None    Shift=    0.000
 RMSDP=3.30D-04 MaxDP=2.04D-02 DE=-4.67D-02 OVMax= 1.41D-02

 Cycle   5  Pass 1  IDiag  1:
 RMSU=  9.51D-05    CP:  8.66D-01  1.67D+00  6.65D-01  6.57D-01
 E= -633.330983301819     Delta-E=       -0.004825007929 Rises=F Damp=F
 DIIS: error= 4.14D-04 at cycle   5 NSaved=   5.
 NSaved= 5 IEnMin= 5 EnMin= -633.330983301819     IErMin= 5 ErrMin= 4.14D-04
 ErrMax= 4.14D-04  0.00D+00 EMaxC= 1.00D-01 BMatC= 6.86D-05 BMatP= 6.41D-03
 IDIUse=3 WtCom= 9.96D-01 WtEn= 4.14D-03
 Coeff-Com: -0.310D-01 0.662D-01 0.760D-01 0.151D+00 0.737D+00
 Coeff-En:   0.000D+00 0.000D+00 0.000D+00 0.000D+00 0.100D+01
 Coeff:     -0.308D-01 0.659D-01 0.757D-01 0.151D+00 0.738D+00
 Gap=     0.237 Goal=   None    Shift=    0.000
 RMSDP=1.13D-04 MaxDP=5.69D-03 DE=-4.83D-03 OVMax= 1.92D-03

 Cycle   6  Pass 1  IDiag  1:
 RMSU=  4.82D-05    CP:  8.62D-01  1.69D+00  6.69D-01  7.79D-01  1.11D+00
 E= -633.331025046823     Delta-E=       -0.000041745004 Rises=F Damp=F
 DIIS: error= 3.71D-04 at cycle   6 NSaved=   6.
 NSaved= 6 IEnMin= 6 EnMin= -633.331025046823     IErMin= 6 ErrMin= 3.71D-04
 ErrMax= 3.71D-04  0.00D+00 EMaxC= 1.00D-01 BMatC= 2.33D-05 BMatP= 6.86D-05
 IDIUse=3 WtCom= 9.96D-01 WtEn= 3.71D-03
 Coeff-Com:  0.175D-01-0.381D-01-0.298D-01-0.912D-02 0.429D+00 0.631D+00
 Coeff-En:   0.000D+00 0.000D+00 0.000D+00 0.000D+00 0.135D+00 0.865D+00
 Coeff:      0.174D-01-0.380D-01-0.297D-01-0.908D-02 0.427D+00 0.632D+00
 Gap=     0.237 Goal=   None    Shift=    0.000
 RMSDP=2.49D-05 MaxDP=1.12D-03 DE=-4.17D-05 OVMax= 2.82D-03

 Cycle   7  Pass 1  IDiag  1:
 RMSU=  1.78D-05    CP:  8.62D-01  1.70D+00  6.72D-01  7.79D-01  1.23D+00
                    CP:  7.90D-01
 E= -633.331047045322     Delta-E=       -0.000021998499 Rises=F Damp=F
 DIIS: error= 3.69D-05 at cycle   7 NSaved=   7.
 NSaved= 7 IEnMin= 7 EnMin= -633.331047045322     IErMin= 7 ErrMin= 3.69D-05
 ErrMax= 3.69D-05  0.00D+00 EMaxC= 1.00D-01 BMatC= 7.62D-07 BMatP= 2.33D-05
 IDIUse=1 WtCom= 1.00D+00 WtEn= 0.00D+00
 Coeff-Com:  0.374D-02-0.805D-02-0.716D-02-0.106D-01-0.928D-02 0.133D+00
 Coeff-Com:  0.898D+00
 Coeff:      0.374D-02-0.805D-02-0.716D-02-0.106D-01-0.928D-02 0.133D+00
 Coeff:      0.898D+00
 Gap=     0.238 Goal=   None    Shift=    0.000
 RMSDP=1.54D-05 MaxDP=7.81D-04 DE=-2.20D-05 OVMax= 6.40D-04

 Cycle   8  Pass 1  IDiag  1:
 RMSU=  4.82D-06    CP:  8.61D-01  1.70D+00  6.74D-01  7.95D-01  1.29D+00
                    CP:  9.22D-01  1.07D+00
 E= -633.331048268963     Delta-E=       -0.000001223642 Rises=F Damp=F
 DIIS: error= 2.13D-05 at cycle   8 NSaved=   8.
 NSaved= 8 IEnMin= 8 EnMin= -633.331048268963     IErMin= 8 ErrMin= 2.13D-05
 ErrMax= 2.13D-05  0.00D+00 EMaxC= 1.00D-01 BMatC= 1.04D-07 BMatP= 7.62D-07
 IDIUse=1 WtCom= 1.00D+00 WtEn= 0.00D+00
 Coeff-Com: -0.522D-03 0.120D-02 0.610D-03-0.385D-02-0.623D-01-0.162D-01
 Coeff-Com:  0.310D+00 0.771D+00
 Coeff:     -0.522D-03 0.120D-02 0.610D-03-0.385D-02-0.623D-01-0.162D-01
 Coeff:      0.310D+00 0.771D+00
 Gap=     0.238 Goal=   None    Shift=    0.000
 RMSDP=4.43D-06 MaxDP=2.69D-04 DE=-1.22D-06 OVMax= 3.68D-04

 Cycle   9  Pass 1  IDiag  1:
 RMSU=  1.43D-06    CP:  8.61D-01  1.70D+00  6.74D-01  7.99D-01  1.30D+00
                    CP:  9.54D-01  1.18D+00  1.19D+00
 E= -633.331048447515     Delta-E=       -0.000000178552 Rises=F Damp=F
 DIIS: error= 4.90D-06 at cycle   9 NSaved=   9.
 NSaved= 9 IEnMin= 9 EnMin= -633.331048447515     IErMin= 9 ErrMin= 4.90D-06
 ErrMax= 4.90D-06  0.00D+00 EMaxC= 1.00D-01 BMatC= 1.65D-08 BMatP= 1.04D-07
 IDIUse=1 WtCom= 1.00D+00 WtEn= 0.00D+00
 Coeff-Com: -0.847D-03 0.184D-02 0.156D-02 0.368D-03-0.219D-01-0.201D-01
 Coeff-Com: -0.341D-01 0.283D+00 0.790D+00
 Coeff:     -0.847D-03 0.184D-02 0.156D-02 0.368D-03-0.219D-01-0.201D-01
 Coeff:     -0.341D-01 0.283D+00 0.790D+00
 Gap=     0.238 Goal=   None    Shift=    0.000
 RMSDP=1.71D-06 MaxDP=7.22D-05 DE=-1.79D-07 OVMax= 1.12D-04

 Cycle  10  Pass 1  IDiag  1:
 RMSU=  6.42D-07    CP:  8.61D-01  1.70D+00  6.74D-01  8.01D-01  1.31D+00
                    CP:  9.71D-01  1.20D+00  1.33D+00  1.13D+00
 E= -633.331048471519     Delta-E=       -0.000000024004 Rises=F Damp=F
 DIIS: error= 1.96D-06 at cycle  10 NSaved=  10.
 NSaved=10 IEnMin=10 EnMin= -633.331048471519     IErMin=10 ErrMin= 1.96D-06
 ErrMax= 1.96D-06  0.00D+00 EMaxC= 1.00D-01 BMatC= 1.59D-09 BMatP= 1.65D-08
 IDIUse=1 WtCom= 1.00D+00 WtEn= 0.00D+00
 Coeff-Com: -0.274D-03 0.592D-03 0.543D-03 0.400D-03-0.361D-02-0.521D-02
 Coeff-Com: -0.430D-01 0.477D-01 0.296D+00 0.707D+00
 Coeff:     -0.274D-03 0.592D-03 0.543D-03 0.400D-03-0.361D-02-0.521D-02
 Coeff:     -0.430D-01 0.477D-01 0.296D+00 0.707D+00
 Gap=     0.238 Goal=   None    Shift=    0.000
 RMSDP=4.88D-07 MaxDP=2.93D-05 DE=-2.40D-08 OVMax= 2.75D-05

 Cycle  11  Pass 1  IDiag  1:
 RMSU=  2.40D-07    CP:  8.61D-01  1.70D+00  6.74D-01  8.01D-01  1.31D+00
                    CP:  9.74D-01  1.21D+00  1.36D+00  1.26D+00  9.75D-01
 E= -633.331048473264     Delta-E=       -0.000000001745 Rises=F Damp=F
 DIIS: error= 1.28D-06 at cycle  11 NSaved=  11.
 NSaved=11 IEnMin=11 EnMin= -633.331048473264     IErMin=11 ErrMin= 1.28D-06
 ErrMax= 1.28D-06  0.00D+00 EMaxC= 1.00D-01 BMatC= 4.50D-10 BMatP= 1.59D-09
 IDIUse=1 WtCom= 1.00D+00 WtEn= 0.00D+00
 Coeff-Com:  0.212D-04-0.491D-04-0.159D-04 0.114D-03 0.215D-02 0.157D-02
 Coeff-Com: -0.162D-01-0.261D-01-0.195D-02 0.390D+00 0.651D+00
 Coeff:      0.212D-04-0.491D-04-0.159D-04 0.114D-03 0.215D-02 0.157D-02
 Coeff:     -0.162D-01-0.261D-01-0.195D-02 0.390D+00 0.651D+00
 Gap=     0.238 Goal=   None    Shift=    0.000
 RMSDP=1.90D-07 MaxDP=1.03D-05 DE=-1.75D-09 OVMax= 1.08D-05

 Cycle  12  Pass 1  IDiag  1:
 RMSU=  1.10D-07    CP:  8.61D-01  1.70D+00  6.74D-01  8.01D-01  1.31D+00
                    CP:  9.74D-01  1.21D+00  1.38D+00  1.25D+00  1.08D+00
                    CP:  7.83D-01
 E= -633.331048473684     Delta-E=       -0.000000000420 Rises=F Damp=F
 DIIS: error= 2.13D-07 at cycle  12 NSaved=  12.
 NSaved=12 IEnMin=12 EnMin= -633.331048473684     IErMin=12 ErrMin= 2.13D-07
 ErrMax= 2.13D-07  0.00D+00 EMaxC= 1.00D-01 BMatC= 3.16D-11 BMatP= 4.50D-10
 IDIUse=1 WtCom= 1.00D+00 WtEn= 0.00D+00
 Coeff-Com:  0.261D-04-0.578D-04-0.401D-04 0.283D-04 0.121D-02 0.106D-02
 Coeff-Com: -0.384D-02-0.143D-01-0.289D-01 0.107D+00 0.283D+00 0.655D+00
 Coeff:      0.261D-04-0.578D-04-0.401D-04 0.283D-04 0.121D-02 0.106D-02
 Coeff:     -0.384D-02-0.143D-01-0.289D-01 0.107D+00 0.283D+00 0.655D+00
 Gap=     0.238 Goal=   None    Shift=    0.000
 RMSDP=5.00D-08 MaxDP=2.77D-06 DE=-4.20D-10 OVMax= 2.52D-06

 Cycle  13  Pass 1  IDiag  1:
 RMSU=  2.36D-08    CP:  8.61D-01  1.70D+00  6.74D-01  8.01D-01  1.31D+00
                    CP:  9.75D-01  1.21D+00  1.38D+00  1.27D+00  1.10D+00
                    CP:  8.84D-01  9.90D-01
 E= -633.331048473718     Delta-E=       -0.000000000033 Rises=F Damp=F
 DIIS: error= 9.36D-08 at cycle  13 NSaved=  13.
 NSaved=13 IEnMin=13 EnMin= -633.331048473718     IErMin=13 ErrMin= 9.36D-08
 ErrMax= 9.36D-08  0.00D+00 EMaxC= 1.00D-01 BMatC= 2.91D-12 BMatP= 3.16D-11
 IDIUse=1 WtCom= 1.00D+00 WtEn= 0.00D+00
 Coeff-Com:  0.532D-05-0.112D-04-0.118D-04-0.150D-04-0.206D-04 0.512D-04
 Coeff-Com:  0.177D-02 0.107D-02-0.104D-01-0.360D-01-0.283D-01 0.192D+00
 Coeff-Com:  0.879D+00
 Coeff:      0.532D-05-0.112D-04-0.118D-04-0.150D-04-0.206D-04 0.512D-04
 Coeff:      0.177D-02 0.107D-02-0.104D-01-0.360D-01-0.283D-01 0.192D+00
 Coeff:      0.879D+00
 Gap=     0.238 Goal=   None    Shift=    0.000
 RMSDP=2.26D-08 MaxDP=8.46D-07 DE=-3.34D-11 OVMax= 2.11D-06

 Cycle  14  Pass 1  IDiag  1:
 RMSU=  1.26D-08    CP:  8.61D-01  1.70D+00  6.74D-01  8.01D-01  1.31D+00
                    CP:  9.75D-01  1.21D+00  1.38D+00  1.26D+00  1.12D+00
                    CP:  9.05D-01  1.13D+00  1.11D+00
 E= -633.331048473724     Delta-E=       -0.000000000007 Rises=F Damp=F
 DIIS: error= 4.15D-08 at cycle  14 NSaved=  14.
 NSaved=14 IEnMin=14 EnMin= -633.331048473724     IErMin=14 ErrMin= 4.15D-08
 ErrMax= 4.15D-08  0.00D+00 EMaxC= 1.00D-01 BMatC= 2.46D-13 BMatP= 2.91D-12
 IDIUse=1 WtCom= 1.00D+00 WtEn= 0.00D+00
 Coeff-Com: -0.161D-05 0.364D-05 0.223D-05-0.404D-05-0.106D-03-0.761D-04
 Coeff-Com:  0.518D-03 0.155D-02 0.138D-02-0.127D-01-0.289D-01-0.491D-01
 Coeff-Com:  0.626D-01 0.102D+01
 Coeff:     -0.161D-05 0.364D-05 0.223D-05-0.404D-05-0.106D-03-0.761D-04
 Coeff:      0.518D-03 0.155D-02 0.138D-02-0.127D-01-0.289D-01-0.491D-01
 Coeff:      0.626D-01 0.102D+01
 Gap=     0.238 Goal=   None    Shift=    0.000
 RMSDP=8.30D-09 MaxDP=3.67D-07 DE=-6.59D-12 OVMax= 1.13D-06

 Error on total polarization charges =  0.01549
 SCF Done:  E(RCAM-B3LYP) =  -633.331048474     A.U. after   14 cycles
            NFock= 14  Conv=0.83D-08     -V/T= 2.0042
 KE= 6.306977414409D+02 PE=-3.277036020661D+03 EE= 1.112517612965D+03
 Leave Link  502 at Sat Jan 24 16:37:22 2026, MaxMem=  2147483648 cpu:             884.8 elap:              55.8
 (Enter /data/home/wyx/g16/l801.exe)
 DoSCS=F DFT=T ScalE2(SS,OS)=  1.000000  1.000000
 ExpMin= 9.52D-02 ExpMax= 2.70D+04 ExpMxC= 9.22D+02 IAcc=3 IRadAn=         5 AccDes= 0.00D+00
 HarFok:  IExCor=  205 AccDes= 0.00D+00 IRadAn=         5 IDoV=-2 UseB2=F ITyADJ=14
 ICtDFT= 12500011 ScaDFX=  1.000000  1.000000  1.000000  1.000000
 Largest valence mixing into a core orbital is  5.64D-05
 Largest core mixing into a valence orbital is  1.19D-05
 Range of M.O.s used for correlation:    15   356
 NBasis=   356 NAE=    52 NBE=    52 NFC=    14 NFV=     0
 NROrb=    342 NOA=    38 NOB=    38 NVA=   304 NVB=   304

 **** Warning!!: The largest alpha MO coefficient is  0.55292088D+02

 Leave Link  801 at Sat Jan 24 16:37:22 2026, MaxMem=  2147483648 cpu:               1.0 elap:               0.1
 (Enter /data/home/wyx/g16/l914.exe)
 RHF ground state
 Two-electron integrals replicated using symmetry.
 MDV=  2147483648 DFT=T DoStab=F Mixed=T DoRPA=T DoScal=F NonHer=T
 NEqPCM:  Using non-equilibrium solvation (IEInf=1, Eps=  78.3553, EpsInf=   1.7778)
 Inv3:  Mode=1 IEnd=    13330992.
 Iteration    1 A*A^-1 deviation from unit magnitude is 3.33D-15 for    753.
 Iteration    1 A*A^-1 deviation from orthogonality  is 1.51D-15 for   1321    415.
 Iteration    1 A^-1*A deviation from unit magnitude is 3.33D-15 for    753.
 Iteration    1 A^-1*A deviation from orthogonality  is 1.56D-15 for   1772    185.
 Making orbital integer symmetry assigments:
 Orbital symmetries:
       Occupied  (A) (A) (A) (A) (A) (A) (A) (A) (A) (A) (A) (A)
                 (A) (A) (A) (A) (A) (A) (A) (A) (A) (A) (A) (A)
                 (A) (A) (A) (A) (A) (A) (A) (A) (A) (A) (A) (A)
                 (A) (A) (A) (A) (A) (A) (A) (A) (A) (A) (A) (A)
                 (A) (A) (A) (A)
       Virtual   (A) (A) (A) (A) (A) (A) (A) (A) (A) (A) (A) (A)
                 (A) (A) (A) (A) (A) (A) (A) (A) (A) (A) (A) (A)
                 (A) (A) (A) (A) (A) (A) (A) (A) (A) (A) (A) (A)
                 (A) (A) (A) (A) (A) (A) (A) (A) (A) (A) (A) (A)
                 (A) (A) (A) (A) (A) (A) (A) (A) (A) (A) (A) (A)
                 (A) (A) (A) (A) (A) (A) (A) (A) (A) (A) (A) (A)
                 (A) (A) (A) (A) (A) (A) (A) (A) (A) (A) (A) (A)
                 (A) (A) (A) (A) (A) (A) (A) (A) (A) (A) (A) (A)
                 (A) (A) (A) (A) (A) (A) (A) (A) (A) (A) (A) (A)
                 (A) (A) (A) (A) (A) (A) (A) (A) (A) (A) (A) (A)
                 (A) (A) (A) (A) (A) (A) (A) (A) (A) (A) (A) (A)
                 (A) (A) (A) (A) (A) (A) (A) (A) (A) (A) (A) (A)
                 (A) (A) (A) (A) (A) (A) (A) (A) (A) (A) (A) (A)
                 (A) (A) (A) (A) (A) (A) (A) (A) (A) (A) (A) (A)
                 (A) (A) (A) (A) (A) (A) (A) (A) (A) (A) (A) (A)
                 (A) (A) (A) (A) (A) (A) (A) (A) (A) (A) (A) (A)
                 (A) (A) (A) (A) (A) (A) (A) (A) (A) (A) (A) (A)
                 (A) (A) (A) (A) (A) (A) (A) (A) (A) (A) (A) (A)
                 (A) (A) (A) (A) (A) (A) (A) (A) (A) (A) (A) (A)
                 (A) (A) (A) (A) (A) (A) (A) (A) (A) (A) (A) (A)
                 (A) (A) (A) (A) (A) (A) (A) (A) (A) (A) (A) (A)
                 (A) (A) (A) (A) (A) (A) (A) (A) (A) (A) (A) (A)
                 (A) (A) (A) (A) (A) (A) (A) (A) (A) (A) (A) (A)
                 (A) (A) (A) (A) (A) (A) (A) (A) (A) (A) (A) (A)
                 (A) (A) (A) (A) (A) (A) (A) (A) (A) (A) (A) (A)
                 (A) (A) (A) (A)
    24 initial guesses have been made.
 Convergence on wavefunction:    0.001000000000000
 Davidson Disk Diagonalization:  ConvIn= 1.00D-03 SkipCon=T Conv= 1.00D-03.
 Max sub-space:  2000 roots to seek:    24 dimension of matrix:        23104
 Iteration     1 Dimension    24 NMult     0 NNew     24
 CISAX will form    24 AO SS matrices at one time.
 NMat=    24 NSing=    24 JSym2X= 0.
 FoFJK:  IHMeth= 1 ICntrl=       0 DoSepK=T KAlg= 0 I1Cent=           0 FoldK=F
 IRaf=         1 NMat=      48 IRICut=       1 DoRegI=T DoRafI=F ISym2E= 0 IDoP0=3 IntGTp=3.
 New state      2 was old state      3
 New state      3 was old state      4
 New state      4 was old state      2
 New state      5 was old state      6
 New state      6 was old state      5
 Excitation Energies [eV] at current iteration:
 Root      1 :     3.947422958818129
 Root      2 :     4.253646680475515
 Root      3 :     4.547717529055227
 Root      4 :     5.548349700921194
 Root      5 :     6.282163572454954
 Root      6 :     6.498174893542526
 Root      7 :     6.818990913665331
 Root      8 :     6.895200412616683
 Root      9 :     6.954288928587735
 Root     10 :     7.183594776138172
 Root     11 :     7.262706321796310
 Root     12 :     7.502196499769452
 Root     13 :     7.601291246308896
 Root     14 :     7.677970552583401
 Root     15 :     7.832502717848612
 Root     16 :     8.065791609992129
 Root     17 :     8.201953907777924
 Root     18 :     8.316166435810644
 Root     19 :     8.362345881863309
 Root     20 :     8.700549207532903
 Root     21 :     8.829837748473700
 Root     22 :     8.933261293907107
 Root     23 :     9.027640353966671
 Root     24 :     9.259339535225257
 Iteration     2 Dimension    36 NMult    24 NNew     12
 CISAX will form    12 AO SS matrices at one time.
 NMat=    12 NSing=    12 JSym2X= 0.
 Root      1 not converged, maximum delta is    0.078867197069918
 Root      2 not converged, maximum delta is    0.075341180124134
 Root      3 not converged, maximum delta is    0.090958647531864
 Root      4 not converged, maximum delta is    0.278744078620734
 New state      5 was old state      6
 Root      5 not converged, maximum delta is    0.328677711851271
 New state      6 was old state      5
 Root      6 not converged, maximum delta is    0.209713947807218
 Excitation Energies [eV] at current iteration:
 Root      1 :     3.512639822480500   Change is   -0.434783136337629
 Root      2 :     4.011680501193912   Change is   -0.241966179281603
 Root      3 :     4.282287271787369   Change is   -0.265430257267859
 Root      4 :     5.200041206236861   Change is   -0.348308494684333
 Root      5 :     5.652759477793717   Change is   -0.845415415748808
 Root      6 :     6.158690259220760   Change is   -0.123473313234195
 Iteration     3 Dimension    48 NMult    36 NNew     12
 CISAX will form    12 AO SS matrices at one time.
 NMat=    12 NSing=    12 JSym2X= 0.
 Root      1 not converged, maximum delta is    0.009379406210626
 Root      2 not converged, maximum delta is    0.010209355392150
 Root      3 not converged, maximum delta is    0.014446916521073
 Root      4 not converged, maximum delta is    0.020805440862405
 Root      5 not converged, maximum delta is    0.021423426738365
 Root      6 not converged, maximum delta is    0.019328663837188
 Excitation Energies [eV] at current iteration:
 Root      1 :     3.494902219929136   Change is   -0.017737602551363
 Root      2 :     3.998927217929273   Change is   -0.012753283264639
 Root      3 :     4.268522394151154   Change is   -0.013764877636215
 Root      4 :     5.177948538442828   Change is   -0.022092667794033
 Root      5 :     5.627270920005330   Change is   -0.025488557788387
 Root      6 :     6.147582860351674   Change is   -0.011107398869086
 Iteration     4 Dimension    60 NMult    48 NNew     12
 CISAX will form    12 AO SS matrices at one time.
 NMat=    12 NSing=    12 JSym2X= 0.
 Root      1 not converged, maximum delta is    0.002081398845104
 Root      2 not converged, maximum delta is    0.002066375446552
 Root      3 not converged, maximum delta is    0.002147882348921
 Root      4 not converged, maximum delta is    0.002591587377054
 Root      5 not converged, maximum delta is    0.003429105575412
 Root      6 not converged, maximum delta is    0.003701096647738
 Excitation Energies [eV] at current iteration:
 Root      1 :     3.493422949596237   Change is   -0.001479270332899
 Root      2 :     3.997948825229171   Change is   -0.000978392700102
 Root      3 :     4.267782860263419   Change is   -0.000739533887735
 Root      4 :     5.176068028573399   Change is   -0.001880509869429
 Root      5 :     5.624810856845080   Change is   -0.002460063160250
 Root      6 :     6.146784311250997   Change is   -0.000798549100678
 Iteration     5 Dimension    72 NMult    60 NNew     12
 CISAX will form    12 AO SS matrices at one time.
 NMat=    12 NSing=    12 JSym2X= 0.
 Root      1 has converged.
 Root      2 has converged.
 Root      3 has converged.
 Root      4 has converged.
 Root      5 not converged, maximum delta is    0.001153724817792
 Root      6 not converged, maximum delta is    0.001102989939247
 Excitation Energies [eV] at current iteration:
 Root      1 :     3.493338557593293   Change is   -0.000084392002944
 Root      2 :     3.997904152971536   Change is   -0.000044672257635
 Root      3 :     4.267739403242668   Change is   -0.000043457020751
 Root      4 :     5.175905396784103   Change is   -0.000162631789296
 Root      5 :     5.624565779243637   Change is   -0.000245077601443
 Root      6 :     6.146720868028475   Change is   -0.000063443222521
 Iteration     6 Dimension    76 NMult    72 NNew      4
 CISAX will form     4 AO SS matrices at one time.
 NMat=     4 NSing=     4 JSym2X= 0.
 Root      1 has converged.
 Root      2 has converged.
 Root      3 has converged.
 Root      4 has converged.
 Root      5 has converged.
 Root      6 has converged.
 Excitation Energies [eV] at current iteration:
 Root      1 :     3.493338454933303   Change is   -0.000000102659990
 Root      2 :     3.997903966938043   Change is   -0.000000186033493
 Root      3 :     4.267739294978678   Change is   -0.000000108263991
 Root      4 :     5.175899458982713   Change is   -0.000005937801389
 Root      5 :     5.624549172457933   Change is   -0.000016606785705
 Root      6 :     6.146716028950950   Change is   -0.000004839077526
 Convergence achieved on expansion vectors.
 ***********************************************************************
 Excited states from <AA,BB:AA,BB> singles matrix:
 ***********************************************************************
 
 1PDM for each excited state written to RWF  633
 Ground to excited state transition densities written to RWF  633
 Ground to excited state transition electric dipole moments (Au):
       state          X           Y           Z        Dip. S.      Osc.
         1        -1.4909     -0.1238     -0.0397      2.2398      0.1917
         2        -0.2215     -0.0244     -0.0454      0.0517      0.0051
         3         0.0051     -0.1069      0.0390      0.0130      0.0014
         4         0.0919     -1.3117      0.1159      1.7424      0.2209
         5        -0.1398      1.4602     -0.0496      2.1543      0.2969
         6        -0.0338      0.2047      0.0807      0.0496      0.0075
 Ground to excited state transition velocity dipole moments (Au):
       state          X           Y           Z        Dip. S.      Osc.
         1         0.1839      0.0124      0.0057      0.0340      0.1766
         2         0.0319      0.0029      0.0044      0.0010      0.0047
         3        -0.0007      0.0158     -0.0025      0.0003      0.0011
         4        -0.0201      0.2360     -0.0172      0.0564      0.1976
         5         0.0289     -0.2954      0.0101      0.0882      0.2845
         6         0.0086     -0.0420     -0.0374      0.0032      0.0095
 Ground to excited state transition magnetic dipole moments (Au):
       state          X           Y           Z
         1         0.1093      0.0236     -1.4184
         2        -0.7906     -0.2341     -0.4555
         3        -0.0632     -0.9717     -0.1176
         4         0.0505      0.0746     -0.1240
         5        -0.2338     -0.1166      0.2366
         6         0.0120      0.0014     -0.0078
 Ground to excited state transition velocity quadrupole moments (Au):
       state          XX          YY          ZZ          XY          XZ          YZ
         1         0.1912     -0.0972     -0.0001     -0.5128      0.0615     -0.0071
         2         0.0185      0.0073     -0.0048     -0.0927      0.0339     -0.0726
         3        -0.0059      0.0073     -0.0239     -0.0347      0.0634      0.0023
         4        -1.1428      0.2300     -0.0027     -0.1034     -0.0695     -0.0419
         5         0.7633     -0.3217     -0.0479      0.1132      0.0734     -0.0555
         6        -0.1959     -0.1943      0.1786     -0.0166     -0.0242      0.0711
 <0|del|b> * <b|rxdel|0> + <0|del|b> * <b|delr+rdel|0>
 Rotatory Strengths (R) in cgs (10**-40 erg-esu-cm/Gauss)
       state          XX          YY          ZZ    R(velocity)    E-M Angle
         1       -31.5157     37.6039     61.8630     22.6504       87.31
         2        -7.6779    -70.1416    -56.5183    -44.7793      156.37
         3       -35.9391      0.5488    -32.1794    -22.5232      163.13
         4        70.4345      0.3372     -1.2068     23.1883       59.06
         5       102.1096    -12.1456     13.0196     34.3279       73.29
         6        -0.2553      0.6000      0.7092      0.3513       65.74
 1/2[<0|r|b>*<b|rxdel|0> + (<0|rxdel|b>*<b|r|0>)*]
 Rotatory Strengths (R) in cgs (10**-40 erg-esu-cm/Gauss)
       state          XX          YY          ZZ     R(length)
         1       115.2495      2.0619    -39.8361     25.8251
         2      -123.8637     -4.0482    -14.6399    -47.5173
         3         0.2282    -73.4436      3.2413    -23.3247
         4        -3.2779     69.1838     10.1671     25.3577
         5       -23.1153    120.4215      8.3066     35.2043
         6         0.2878     -0.1997      0.4456      0.1779
  1/2[<0|del|b>*<b|r|0> + (<0|r|b>*<b|del|0>)*] (Au)
       state          X           Y           Z        Dip. S.   Osc.(frdel)
         1        -0.2742     -0.0015     -0.0002      0.2760      0.1840
         2        -0.0071     -0.0001     -0.0002      0.0073      0.0049
         3        -0.0000     -0.0017     -0.0001      0.0018      0.0012
         4        -0.0019     -0.3095     -0.0020      0.3134      0.2089
         5        -0.0040     -0.4314     -0.0005      0.4359      0.2906
         6        -0.0003     -0.0086     -0.0030      0.0119      0.0079

 Excitation energies and oscillator strengths:
 
 Excited State   1:      Singlet-A      3.4933 eV  354.92 nm  f=0.1917  <S**2>=0.000
      52 -> 53         0.69692
 This state for optimization and/or second-order correction.
 Total Energy, E(TD-HF/TD-DFT) =  -633.202670648    
 Copying the excited state density for this state as the 1-particle RhoCI density.
 
 Excited State   2:      Singlet-A      3.9979 eV  310.12 nm  f=0.0051  <S**2>=0.000
      50 -> 53         0.12449
      50 -> 54        -0.14075
      51 -> 53         0.57086
      51 -> 54        -0.33069
 
 Excited State   3:      Singlet-A      4.2677 eV  290.51 nm  f=0.0014  <S**2>=0.000
      49 -> 53         0.20063
      49 -> 54         0.14555
      50 -> 53         0.51502
      50 -> 54         0.31637
      50 -> 58         0.11267
      51 -> 53        -0.12622
      51 -> 54        -0.17147
 
 Excited State   4:      Singlet-A      5.1759 eV  239.54 nm  f=0.2209  <S**2>=0.000
      52 -> 54         0.69778
 
 Excited State   5:      Singlet-A      5.6245 eV  220.43 nm  f=0.2969  <S**2>=0.000
      49 -> 53         0.63697
      50 -> 53        -0.25006
 
 Excited State   6:      Singlet-A      6.1467 eV  201.71 nm  f=0.0075  <S**2>=0.000
      52 -> 55         0.66955
      52 -> 56         0.11262
 SavETr:  write IOETrn=   770 NScale= 10 NData=  16 NLR=1 NState=    6 LETran=     118.
 Leave Link  914 at Sat Jan 24 16:39:43 2026, MaxMem=  2147483648 cpu:            2228.6 elap:             140.0
 (Enter /data/home/wyx/g16/l601.exe)
 Copying SCF densities to generalized density rwf, IOpCl= 0 IROHF=0.

 **********************************************************************

            Population analysis using the SCF density.

 **********************************************************************

 Orbital symmetries:
       Occupied  (A) (A) (A) (A) (A) (A) (A) (A) (A) (A) (A) (A)
                 (A) (A) (A) (A) (A) (A) (A) (A) (A) (A) (A) (A)
                 (A) (A) (A) (A) (A) (A) (A) (A) (A) (A) (A) (A)
                 (A) (A) (A) (A) (A) (A) (A) (A) (A) (A) (A) (A)
                 (A) (A) (A) (A)
       Virtual   (A) (A) (A) (A) (A) (A) (A) (A) (A) (A) (A) (A)
                 (A) (A) (A) (A) (A) (A) (A) (A) (A) (A) (A) (A)
                 (A) (A) (A) (A) (A) (A) (A) (A) (A) (A) (A) (A)
                 (A) (A) (A) (A) (A) (A) (A) (A) (A) (A) (A) (A)
                 (A) (A) (A) (A) (A) (A) (A) (A) (A) (A) (A) (A)
                 (A) (A) (A) (A) (A) (A) (A) (A) (A) (A) (A) (A)
                 (A) (A) (A) (A) (A) (A) (A) (A) (A) (A) (A) (A)
                 (A) (A) (A) (A) (A) (A) (A) (A) (A) (A) (A) (A)
                 (A) (A) (A) (A) (A) (A) (A) (A) (A) (A) (A) (A)
                 (A) (A) (A) (A) (A) (A) (A) (A) (A) (A) (A) (A)
                 (A) (A) (A) (A) (A) (A) (A) (A) (A) (A) (A) (A)
                 (A) (A) (A) (A) (A) (A) (A) (A) (A) (A) (A) (A)
                 (A) (A) (A) (A) (A) (A) (A) (A) (A) (A) (A) (A)
                 (A) (A) (A) (A) (A) (A) (A) (A) (A) (A) (A) (A)
                 (A) (A) (A) (A) (A) (A) (A) (A) (A) (A) (A) (A)
                 (A) (A) (A) (A) (A) (A) (A) (A) (A) (A) (A) (A)
                 (A) (A) (A) (A) (A) (A) (A) (A) (A) (A) (A) (A)
                 (A) (A) (A) (A) (A) (A) (A) (A) (A) (A) (A) (A)
                 (A) (A) (A) (A) (A) (A) (A) (A) (A) (A) (A) (A)
                 (A) (A) (A) (A) (A) (A) (A) (A) (A) (A) (A) (A)
                 (A) (A) (A) (A) (A) (A) (A) (A) (A) (A) (A) (A)
                 (A) (A) (A) (A) (A) (A) (A) (A) (A) (A) (A) (A)
                 (A) (A) (A) (A) (A) (A) (A) (A) (A) (A) (A) (A)
                 (A) (A) (A) (A) (A) (A) (A) (A) (A) (A) (A) (A)
                 (A) (A) (A) (A) (A) (A) (A) (A) (A) (A) (A) (A)
                 (A) (A) (A) (A)
 The electronic state is 1-A.
 Alpha  occ. eigenvalues --  -19.17952 -19.17363 -14.44107 -10.33484 -10.33284
 Alpha  occ. eigenvalues --  -10.32055 -10.31734 -10.25615 -10.25034 -10.24976
 Alpha  occ. eigenvalues --  -10.24764 -10.24653 -10.24144 -10.23839  -1.12047
 Alpha  occ. eigenvalues --   -1.11015  -1.07531  -0.91294  -0.90400  -0.83870
 Alpha  occ. eigenvalues --   -0.82499  -0.81480  -0.78587  -0.74102  -0.71214
 Alpha  occ. eigenvalues --   -0.68811  -0.61783  -0.58319  -0.56849  -0.55142
 Alpha  occ. eigenvalues --   -0.54559  -0.54080  -0.52555  -0.51892  -0.50671
 Alpha  occ. eigenvalues --   -0.49991  -0.49491  -0.49047  -0.48405  -0.48217
 Alpha  occ. eigenvalues --   -0.46752  -0.45336  -0.44848  -0.43426  -0.43033
 Alpha  occ. eigenvalues --   -0.42428  -0.42016  -0.41771  -0.32926  -0.32346
 Alpha  occ. eigenvalues --   -0.31391  -0.26298
 Alpha virt. eigenvalues --   -0.02541   0.02244   0.06546   0.08260   0.08824
 Alpha virt. eigenvalues --    0.10154   0.10688   0.12064   0.12699   0.13776
 Alpha virt. eigenvalues --    0.14165   0.15231   0.15669   0.16355   0.17007
 Alpha virt. eigenvalues --    0.17416   0.17619   0.17980   0.18176   0.19169
 Alpha virt. eigenvalues --    0.19909   0.21790   0.22733   0.23444   0.23512
 Alpha virt. eigenvalues --    0.24317   0.24713   0.25476   0.25810   0.26561
 Alpha virt. eigenvalues --    0.27084   0.27399   0.29011   0.29279   0.30189
 Alpha virt. eigenvalues --    0.31520   0.32107   0.32492   0.33676   0.34407
 Alpha virt. eigenvalues --    0.35400   0.35819   0.36857   0.38210   0.38815
 Alpha virt. eigenvalues --    0.39505   0.41021   0.41927   0.42287   0.42694
 Alpha virt. eigenvalues --    0.44070   0.44266   0.45338   0.46075   0.46291
 Alpha virt. eigenvalues --    0.47160   0.48097   0.48364   0.48390   0.48865
 Alpha virt. eigenvalues --    0.49563   0.49625   0.50907   0.51330   0.51376
 Alpha virt. eigenvalues --    0.52647   0.53140   0.53749   0.54026   0.54399
 Alpha virt. eigenvalues --    0.54633   0.55661   0.55964   0.56688   0.58139
 Alpha virt. eigenvalues --    0.58611   0.59105   0.60373   0.61046   0.62115
 Alpha virt. eigenvalues --    0.63235   0.65330   0.65856   0.66458   0.67828
 Alpha virt. eigenvalues --    0.69294   0.70749   0.71708   0.72608   0.73120
 Alpha virt. eigenvalues --    0.73703   0.74447   0.74819   0.76284   0.77122
 Alpha virt. eigenvalues --    0.78484   0.79528   0.82424   0.83515   0.85223
 Alpha virt. eigenvalues --    0.88029   0.91103   0.94622   0.99738   1.25210
 Alpha virt. eigenvalues --    1.25646   1.27261   1.28314   1.29581   1.31507
 Alpha virt. eigenvalues --    1.32633   1.32750   1.33948   1.35459   1.35825
 Alpha virt. eigenvalues --    1.36904   1.37369   1.38154   1.39217   1.39670
 Alpha virt. eigenvalues --    1.40107   1.40649   1.41320   1.41617   1.41898
 Alpha virt. eigenvalues --    1.43316   1.43986   1.44103   1.45312   1.47118
 Alpha virt. eigenvalues --    1.47796   1.49131   1.49628   1.50685   1.51259
 Alpha virt. eigenvalues --    1.52309   1.52627   1.53466   1.54628   1.57362
 Alpha virt. eigenvalues --    1.58159   1.60258   1.60820   1.61376   1.62291
 Alpha virt. eigenvalues --    1.62747   1.63393   1.64366   1.65555   1.66327
 Alpha virt. eigenvalues --    1.67015   1.67617   1.68136   1.68465   1.69112
 Alpha virt. eigenvalues --    1.69486   1.70685   1.71130   1.72208   1.73078
 Alpha virt. eigenvalues --    1.73294   1.74827   1.76104   1.77016   1.78447
 Alpha virt. eigenvalues --    1.80174   1.83228   1.84619   1.85911   1.86457
 Alpha virt. eigenvalues --    1.87091   1.87482   1.87947   1.89536   1.90462
 Alpha virt. eigenvalues --    1.91372   1.94144   1.95669   1.98135   1.99809
 Alpha virt. eigenvalues --    2.00869   2.03846   2.04606   2.06624   2.09437
 Alpha virt. eigenvalues --    2.11174   2.13203   2.14575   2.17312   2.19527
 Alpha virt. eigenvalues --    2.21325   2.21421   2.22057   2.23062   2.25581
 Alpha virt. eigenvalues --    2.26952   2.28049   2.29253   2.30907   2.31782
 Alpha virt. eigenvalues --    2.34035   2.34462   2.35735   2.37026   2.37804
 Alpha virt. eigenvalues --    2.39264   2.40699   2.41533   2.44505   2.44660
 Alpha virt. eigenvalues --    2.45403   2.47914   2.49336   2.50656   2.51994
 Alpha virt. eigenvalues --    2.52478   2.53186   2.54290   2.56699   2.58411
 Alpha virt. eigenvalues --    2.59197   2.60435   2.60594   2.61191   2.62700
 Alpha virt. eigenvalues --    2.64198   2.65685   2.66724   2.67456   2.69442
 Alpha virt. eigenvalues --    2.70856   2.71351   2.73146   2.73720   2.74388
 Alpha virt. eigenvalues --    2.76014   2.77102   2.77592   2.78164   2.79180
 Alpha virt. eigenvalues --    2.80642   2.81220   2.82508   2.83749   2.84650
 Alpha virt. eigenvalues --    2.85861   2.85975   2.87873   2.90259   2.92367
 Alpha virt. eigenvalues --    2.97471   2.99162   3.00470   3.04643   3.10151
 Alpha virt. eigenvalues --    3.11389   3.12865   3.15198   3.17753   3.18045
 Alpha virt. eigenvalues --    3.21242   3.22089   3.24825   3.25513   3.26499
 Alpha virt. eigenvalues --    3.26583   3.29388   3.33073   3.34778   3.36571
 Alpha virt. eigenvalues --    3.37331   3.39121   3.39852   3.40636   3.42017
 Alpha virt. eigenvalues --    3.42675   3.44798   3.45704   3.46526   3.47166
 Alpha virt. eigenvalues --    3.49598   3.50277   3.54430   3.57331   3.58993
 Alpha virt. eigenvalues --    3.60021   3.90020   3.99451   4.33946   4.34636
 Alpha virt. eigenvalues --   21.63117  21.77909  22.07460  22.10613  22.11253
 Alpha virt. eigenvalues --   22.13455  22.15549  22.17772  22.21118  22.25491
 Alpha virt. eigenvalues --   22.30748  31.93331  43.62557  43.64813
          Condensed to atoms (all electrons):
               1          2          3          4          5          6
     1  O    7.954747   0.000000  -0.000238   0.000017   0.016290   0.016936
     2  O    0.000000   8.012770   0.000383   0.000034  -0.198091   0.001119
     3  N   -0.000238   0.000383   6.387853   0.375070  -0.110319   0.340718
     4  H    0.000017   0.000034   0.375070   0.399999   0.015240  -0.044471
     5  C    0.016290  -0.198091  -0.110319   0.015240   7.005178  -0.051471
     6  C    0.016936   0.001119   0.340718  -0.044471  -0.051471   5.610392
     7  C   -0.000383  -0.025142   0.372244  -0.042124   0.381567  -0.101438
     8  C   -0.000192   0.697795   0.004367  -0.000663  -0.322512   0.032318
     9  C   -0.027255   0.017868   0.016589  -0.000213  -0.490377  -0.124444
    10  H    0.003590   0.000075   0.003563   0.000015  -0.028746  -0.012504
    11  H    0.016715  -0.000082  -0.001393   0.000013  -0.110174   0.023846
    12  C   -0.223539  -0.002325  -0.094466   0.015262   0.144482  -0.168785
    13  C    0.715705  -0.000026   0.000201   0.000380   0.071754   0.169499
    14  C   -0.000007  -0.028579  -0.038893  -0.005184  -0.053797   0.001954
    15  H   -0.000000   0.004517   0.003955   0.000463   0.013815   0.006084
    16  H   -0.000000   0.000788  -0.003902   0.000803  -0.008155  -0.001436
    17  H    0.000000   0.006830   0.002965   0.000741  -0.004845  -0.000614
    18  C   -0.000172  -0.107034  -0.000484   0.000018  -0.246208  -0.000138
    19  H   -0.000004   0.008214   0.000004  -0.000001   0.022861   0.000026
    20  H    0.000016   0.000580   0.000015  -0.000001  -0.003591   0.000236
    21  H    0.000141   0.004532   0.000120   0.000001   0.053075  -0.001260
    22  C   -0.110245   0.000000   0.000068   0.000107   0.003430  -0.009762
    23  H    0.004542  -0.000000  -0.000055  -0.000050  -0.000502  -0.033008
    24  H    0.001436  -0.000000  -0.000015  -0.000017  -0.000100   0.011306
    25  H    0.008430   0.000000   0.000029  -0.000002  -0.000130  -0.001314
    26  C    0.000908   0.000003  -0.030115  -0.006725  -0.000266   0.182241
    27  H   -0.000195  -0.000000   0.002656   0.000893   0.000044  -0.043113
    28  H   -0.000041  -0.000000  -0.002540   0.000458   0.000397  -0.035435
    29  H    0.000024  -0.000000   0.000838   0.001049  -0.000483  -0.049600
               7          8          9         10         11         12
     1  O   -0.000383  -0.000192  -0.027255   0.003590   0.016715  -0.223539
     2  O   -0.025142   0.697795   0.017868   0.000075  -0.000082  -0.002325
     3  N    0.372244   0.004367   0.016589   0.003563  -0.001393  -0.094466
     4  H   -0.042124  -0.000663  -0.000213   0.000015   0.000013   0.015262
     5  C    0.381567  -0.322512  -0.490377  -0.028746  -0.110174   0.144482
     6  C   -0.101438   0.032318  -0.124444  -0.012504   0.023846  -0.168785
     7  C    5.418674  -0.202493  -0.168567  -0.006022   0.017665   0.005235
     8  C   -0.202493   5.457512   0.098519  -0.002733  -0.007621  -0.039291
     9  C   -0.168567   0.098519   6.274357   0.395072   0.530118   0.002782
    10  H   -0.006022  -0.002733   0.395072   0.547845  -0.034667  -0.021212
    11  H    0.017665  -0.007621   0.530118  -0.034667   0.500795  -0.105790
    12  C    0.005235  -0.039291   0.002782  -0.021212  -0.105790   7.290581
    13  C    0.014029  -0.006823  -0.259418  -0.000017  -0.000065  -0.398972
    14  C    0.236504  -0.055098   0.012899  -0.001409   0.000463  -0.001784
    15  H   -0.068190   0.005884  -0.000549   0.000107  -0.000004  -0.000938
    16  H   -0.019760   0.002110   0.000007  -0.000056   0.000053   0.000535
    17  H   -0.035420  -0.012392   0.000273   0.000158  -0.000061  -0.000190
    18  C    0.004667   0.328897   0.002504  -0.009972   0.005790   0.000169
    19  H    0.000481  -0.050880  -0.000745   0.000065   0.000479  -0.000242
    20  H    0.000260  -0.016054  -0.005858   0.000772  -0.001686  -0.003080
    21  H    0.001656  -0.082482  -0.011518   0.001857  -0.005681   0.006612
    22  C    0.000102  -0.000032   0.004475   0.001481   0.001035  -0.258873
    23  H    0.000004  -0.000009   0.003259  -0.000124  -0.000073   0.061810
    24  H    0.000018   0.000003  -0.002010   0.000144  -0.000114  -0.009834
    25  H    0.000010   0.000003   0.000107  -0.000038  -0.000133   0.025522
    26  C    0.002389   0.000470   0.019817  -0.000630   0.000024  -0.076615
    27  H   -0.000714   0.000001  -0.000970  -0.000066   0.000003  -0.006390
    28  H   -0.000953  -0.000012  -0.000161  -0.000023   0.000048  -0.019979
    29  H    0.003718  -0.000003  -0.000530   0.000083  -0.000008   0.023878
              13         14         15         16         17         18
     1  O    0.715705  -0.000007  -0.000000  -0.000000   0.000000  -0.000172
     2  O   -0.000026  -0.028579   0.004517   0.000788   0.006830  -0.107034
     3  N    0.000201  -0.038893   0.003955  -0.003902   0.002965  -0.000484
     4  H    0.000380  -0.005184   0.000463   0.000803   0.000741   0.000018
     5  C    0.071754  -0.053797   0.013815  -0.008155  -0.004845  -0.246208
     6  C    0.169499   0.001954   0.006084  -0.001436  -0.000614  -0.000138
     7  C    0.014029   0.236504  -0.068190  -0.019760  -0.035420   0.004667
     8  C   -0.006823  -0.055098   0.005884   0.002110  -0.012392   0.328897
     9  C   -0.259418   0.012899  -0.000549   0.000007   0.000273   0.002504
    10  H   -0.000017  -0.001409   0.000107  -0.000056   0.000158  -0.009972
    11  H   -0.000065   0.000463  -0.000004   0.000053  -0.000061   0.005790
    12  C   -0.398972  -0.001784  -0.000938   0.000535  -0.000190   0.000169
    13  C    5.447213  -0.000057  -0.000012  -0.000026   0.000001   0.000504
    14  C   -0.000057   5.150563   0.383779   0.403507   0.424630   0.001150
    15  H   -0.000012   0.383779   0.571424  -0.026069  -0.028530   0.000244
    16  H   -0.000026   0.403507  -0.026069   0.506774  -0.024827  -0.000034
    17  H    0.000001   0.424630  -0.028530  -0.024827   0.501476   0.000010
    18  C    0.000504   0.001150   0.000244  -0.000034   0.000010   5.313268
    19  H   -0.000011   0.000040  -0.000005  -0.000016   0.000066   0.394596
    20  H   -0.000093  -0.000325  -0.000005   0.000006   0.000031   0.391776
    21  H    0.000715   0.000214  -0.000019   0.000001  -0.000073   0.388661
    22  C    0.293888  -0.000017   0.000003  -0.000000  -0.000000   0.000020
    23  H   -0.086373  -0.000000  -0.000000   0.000000   0.000000   0.000003
    24  H   -0.024794  -0.000001   0.000000   0.000000   0.000000  -0.000001
    25  H   -0.044166   0.000001  -0.000000  -0.000000  -0.000000  -0.000001
    26  C   -0.055439   0.001354  -0.000163  -0.000147   0.000046   0.000012
    27  H   -0.006227   0.000098  -0.000015   0.000002  -0.000001   0.000000
    28  H    0.006440  -0.000084   0.000009  -0.000016   0.000003  -0.000001
    29  H   -0.000305  -0.000250   0.000124   0.000002  -0.000002   0.000000
              19         20         21         22         23         24
     1  O   -0.000004   0.000016   0.000141  -0.110245   0.004542   0.001436
     2  O    0.008214   0.000580   0.004532   0.000000  -0.000000  -0.000000
     3  N    0.000004   0.000015   0.000120   0.000068  -0.000055  -0.000015
     4  H   -0.000001  -0.000001   0.000001   0.000107  -0.000050  -0.000017
     5  C    0.022861  -0.003591   0.053075   0.003430  -0.000502  -0.000100
     6  C    0.000026   0.000236  -0.001260  -0.009762  -0.033008   0.011306
     7  C    0.000481   0.000260   0.001656   0.000102   0.000004   0.000018
     8  C   -0.050880  -0.016054  -0.082482  -0.000032  -0.000009   0.000003
     9  C   -0.000745  -0.005858  -0.011518   0.004475   0.003259  -0.002010
    10  H    0.000065   0.000772   0.001857   0.001481  -0.000124   0.000144
    11  H    0.000479  -0.001686  -0.005681   0.001035  -0.000073  -0.000114
    12  C   -0.000242  -0.003080   0.006612  -0.258873   0.061810  -0.009834
    13  C   -0.000011  -0.000093   0.000715   0.293888  -0.086373  -0.024794
    14  C    0.000040  -0.000325   0.000214  -0.000017  -0.000000  -0.000001
    15  H   -0.000005  -0.000005  -0.000019   0.000003  -0.000000   0.000000
    16  H   -0.000016   0.000006   0.000001  -0.000000   0.000000   0.000000
    17  H    0.000066   0.000031  -0.000073  -0.000000   0.000000   0.000000
    18  C    0.394596   0.391776   0.388661   0.000020   0.000003  -0.000001
    19  H    0.506481  -0.010022  -0.024876  -0.000000   0.000000   0.000000
    20  H   -0.010022   0.495493  -0.023787  -0.000008  -0.000000   0.000000
    21  H   -0.024876  -0.023787   0.537876   0.000019  -0.000000  -0.000000
    22  C   -0.000000  -0.000008   0.000019   5.418472   0.397034   0.402115
    23  H    0.000000  -0.000000  -0.000000   0.397034   0.536411  -0.026801
    24  H    0.000000   0.000000  -0.000000   0.402115  -0.026801   0.491308
    25  H   -0.000000  -0.000000  -0.000000   0.383250  -0.021580  -0.008062
    26  C    0.000000   0.000004  -0.000014  -0.030271   0.016603  -0.015699
    27  H   -0.000000   0.000000  -0.000000   0.010303  -0.010199  -0.001042
    28  H    0.000000  -0.000000  -0.000000  -0.011791  -0.001429   0.001264
    29  H    0.000000  -0.000000   0.000000   0.001890   0.000730   0.000208
              25         26         27         28         29
     1  O    0.008430   0.000908  -0.000195  -0.000041   0.000024
     2  O    0.000000   0.000003  -0.000000  -0.000000  -0.000000
     3  N    0.000029  -0.030115   0.002656  -0.002540   0.000838
     4  H   -0.000002  -0.006725   0.000893   0.000458   0.001049
     5  C   -0.000130  -0.000266   0.000044   0.000397  -0.000483
     6  C   -0.001314   0.182241  -0.043113  -0.035435  -0.049600
     7  C    0.000010   0.002389  -0.000714  -0.000953   0.003718
     8  C    0.000003   0.000470   0.000001  -0.000012  -0.000003
     9  C    0.000107   0.019817  -0.000970  -0.000161  -0.000530
    10  H   -0.000038  -0.000630  -0.000066  -0.000023   0.000083
    11  H   -0.000133   0.000024   0.000003   0.000048  -0.000008
    12  C    0.025522  -0.076615  -0.006390  -0.019979   0.023878
    13  C   -0.044166  -0.055439  -0.006227   0.006440  -0.000305
    14  C    0.000001   0.001354   0.000098  -0.000084  -0.000250
    15  H   -0.000000  -0.000163  -0.000015   0.000009   0.000124
    16  H   -0.000000  -0.000147   0.000002  -0.000016   0.000002
    17  H   -0.000000   0.000046  -0.000001   0.000003  -0.000002
    18  C   -0.000001   0.000012   0.000000  -0.000001   0.000000
    19  H   -0.000000   0.000000  -0.000000   0.000000   0.000000
    20  H   -0.000000   0.000004   0.000000  -0.000000  -0.000000
    21  H   -0.000000  -0.000014  -0.000000  -0.000000   0.000000
    22  C    0.383250  -0.030271   0.010303  -0.011791   0.001890
    23  H   -0.021580   0.016603  -0.010199  -0.001429   0.000730
    24  H   -0.008062  -0.015699  -0.001042   0.001264   0.000208
    25  H    0.497906   0.001934   0.000861   0.000103  -0.000046
    26  C    0.001934   5.253119   0.423220   0.431794   0.389150
    27  H    0.000861   0.423220   0.510427  -0.025464  -0.026230
    28  H    0.000103   0.431794  -0.025464   0.475307  -0.017360
    29  H   -0.000046   0.389150  -0.026230  -0.017360   0.516781
 Mulliken charges:
               1
     1  O   -0.377225
     2  O   -0.394228
     3  N   -0.229219
     4  H    0.288885
     5  C   -0.098367
     6  C    0.282117
     7  C    0.211981
     8  C    0.171411
     9  C   -0.286031
    10  H    0.163394
    11  H    0.170505
    12  C   -0.144560
    13  C    0.162496
    14  C   -0.431672
    15  H    0.134092
    16  H    0.169856
    17  H    0.169725
    18  C   -0.468246
    19  H    0.153489
    20  H    0.175320
    21  H    0.154232
    22  C   -0.496693
    23  H    0.159809
    24  H    0.180687
    25  H    0.157317
    26  C   -0.507005
    27  H    0.172118
    28  H    0.199467
    29  H    0.156343
 Sum of Mulliken charges =  -0.00000
 Mulliken charges with hydrogens summed into heavy atoms:
               1
     1  O   -0.377225
     2  O   -0.394228
     3  N    0.059666
     5  C   -0.098367
     6  C    0.282117
     7  C    0.211981
     8  C    0.171411
     9  C    0.047868
    12  C   -0.144560
    13  C    0.162496
    14  C    0.042002
    18  C    0.014795
    22  C    0.001120
    26  C    0.020924
 Electronic spatial extent (au):  <R**2>=           3193.4342
 Charge=             -0.0000 electrons
 Dipole moment (field-independent basis, Debye):
    X=             -4.1861    Y=              7.5229    Z=             -0.4110  Tot=              8.6189
 Quadrupole moment (field-independent basis, Debye-Ang):
   XX=            -98.4145   YY=            -78.3988   ZZ=            -84.8603
   XY=            -13.0741   XZ=             -5.2453   YZ=             -1.3228
 Traceless Quadrupole moment (field-independent basis, Debye-Ang):
   XX=            -11.1900   YY=              8.8257   ZZ=              2.3643
   XY=            -13.0741   XZ=             -5.2453   YZ=             -1.3228
 Octapole moment (field-independent basis, Debye-Ang**2):
  XXX=           -112.6254  YYY=             64.9816  ZZZ=              2.2288  XYY=             35.9257
  XXY=             30.6920  XXZ=            -11.2225  XZZ=             -2.8948  YZZ=             -0.9692
  YYZ=              2.5386  XYZ=              4.3627
 Hexadecapole moment (field-independent basis, Debye-Ang**3):
 XXXX=          -3058.4222 YYYY=          -1268.8459 ZZZZ=           -151.7822 XXXY=            -42.0166
 XXXZ=            -65.0089 YYYX=            -91.7196 YYYZ=            -21.2000 ZZZX=              3.0129
 ZZZY=              5.3342 XXYY=           -689.5042 XXZZ=           -488.9185 YYZZ=           -239.6590
 XXYZ=             -3.8978 YYXZ=             -5.3338 ZZXY=              0.7079
 N-N= 9.004896177815D+02 E-N=-3.277036019322D+03  KE= 6.306977414409D+02
 Leave Link  601 at Sat Jan 24 16:39:43 2026, MaxMem=  2147483648 cpu:               0.7 elap:               0.1
 (Enter /data/home/wyx/g16/l9999.exe)
 Electronic transition elements 
                 1             2             3             4             5 
      1  -0.633203D+03 -0.633184D+03 -0.633174D+03 -0.633141D+03 -0.633124D+03
      2   0.140878D+01  0.203700D+00  0.385832D-01  0.376294D+00 -0.368912D+00
      3   0.393922D+00  0.531119D-01 -0.102435D+00 -0.126472D+01  0.142027D+01
      4   0.316170D+00  0.862131D-01 -0.314081D-01 -0.351515D-01 -0.320454D-01
      5  -0.172661D+00 -0.295312D-01 -0.514368D-02 -0.636463D-01  0.741283D-01
      6  -0.513003D-01 -0.824934D-02  0.150500D-01  0.228744D+00 -0.287551D+00
      7  -0.395593D-01 -0.102819D-01  0.138450D-02  0.333650D-02  0.630547D-02
      8  -0.383650D+00  0.719130D+00  0.360418D+00 -0.955131D-01  0.300531D+00
      9  -0.570799D-02  0.534829D-01 -0.890689D+00  0.536614D-01 -0.311894D-01
     10   0.137005D+01  0.606109D+00  0.197196D+00  0.107159D+00 -0.181611D+00
     11  -0.185565D+00 -0.435068D-01 -0.494536D-01 -0.979961D+00  0.662305D+00
     12   0.266576D+00  0.692247D-01  0.282801D-01  0.136073D+00 -0.266493D+00
     13   0.128598D-01 -0.479282D-02 -0.131123D-02 -0.715709D-01 -0.210262D-02
     14   0.471637D+00  0.578417D-01  0.185982D-01 -0.358526D+00  0.242139D+00
     15   0.154811D-01 -0.880019D-03  0.552324D-01 -0.270238D+00  0.188800D+00
     16   0.119593D+00  0.922715D-01  0.231838D-01 -0.558562D-01  0.128150D+00
                 6 
      1  -0.633105D+03
      2  -0.216355D-01
      3   0.203387D+00
      4  -0.879619D-01
      5  -0.109865D-02
      6  -0.421007D-01
      7   0.381497D-01
      8  -0.130839D-01
      9  -0.277119D-02
     10   0.538952D-02
     11  -0.192435D+00
     12  -0.184862D+00
     13   0.165665D+00
     14   0.260725D-01
     15  -0.720272D-01
     16  -0.689305D-01
 1\1\GINC-CN015\SP\RCAM-B3LYP TD-FC\TZVP\C11H15N1O2\WYX\24-Jan-2026\0\\
 #p CAM-B3LYP TZVP em=gd3bj td(nstates=6,root=1) scrf=(Solvent=Water)\\
 Title Card Required\\0,1\O,0,2.751427,-1.558562,0.719013\O,0,-3.258428
 ,-1.645069,-1.054801\N,0,-0.699066,1.517043,0.093581\H,0,-1.005316,2.4
 74055,0.029032\C,0,-1.244722,-0.759673,-0.155624\C,0,0.647479,1.301933
 ,0.260181\C,0,-1.614499,0.540755,-0.236315\C,0,-2.152913,-1.827403,-0.
 522681\C,0,0.112483,-1.113209,0.404481\H,0,0.019936,-1.45927,1.441882\
 H,0,0.537635,-1.954435,-0.1395\C,0,1.100768,0.02901,0.344807\C,0,2.496
 203,-0.384727,0.459747\C,0,-2.939123,1.076525,-0.657522\H,0,-3.112635,
 2.068912,-0.238316\H,0,-3.001956,1.158024,-1.743732\H,0,-3.764526,0.43
 9851,-0.350575\C,0,-1.755626,-3.248584,-0.243533\H,0,-2.615211,-3.9162
 7,-0.260681\H,0,-1.0514,-3.606649,-0.999397\H,0,-1.259343,-3.370497,0.
 719669\C,0,3.654785,0.554903,0.235611\H,0,3.492126,1.246089,-0.587038\
 H,0,3.851247,1.138957,1.136057\H,0,4.533589,-0.052217,0.03197\C,0,1.42
 6143,2.580507,0.319808\H,0,2.242352,2.537014,1.030873\H,0,1.834675,2.8
 34114,-0.659257\H,0,0.773917,3.398872,0.622258\\Version=ES64L-G16RevA.
 03\State=1-A\HF=-633.3310485\RMSD=8.304e-09\PG=C01 [X(C11H15N1O2)]\\@


 THOSE WHO ASPIRE NOT TO GUESS AND DIVINE,
 BUT TO DISCOVER AND KNOW, WHO PROPOSE NOT TO DEVISE 
 MIMIC AND FABULOUS WORLDS OF THEIR OWN, BUT TO 
 EXAMINE AND DISSECT THE NATURE OF THIS VERY WORLD 
 ITSELF, MUST GO TO THE FACTS THEMSELVES FOR EVERYTHING.

                               -- FRANCIS BACON, 1620
 Job cpu time:       0 days  0 hours 52 minutes 13.7 seconds.
 Elapsed time:       0 days  0 hours  3 minutes 17.3 seconds.
 File lengths (MBytes):  RWF=    832 Int=      0 D2E=      0 Chk=     34 Scr=      1
 Normal termination of Gaussian 16 at Sat Jan 24 16:39:45 2026.
