 Entering Gaussian System, Link 0=g16
 Input=DDL-LR-8.gjf
 Output=DDL-LR-8.log
 Initial command:
 /data/home/wyx/g16/l1.exe "/scr/tmp/wyx/13119/Gau-1511251.inp" -scrdir="/scr/tmp/wyx/13119/"
 Entering Link 1 = /data/home/wyx/g16/l1.exe PID=   1511252.
  
 Copyright (c) 1988,1990,1992,1993,1995,1998,2003,2009,2016,
            Gaussian, Inc.  All Rights Reserved.
  
 This is part of the Gaussian(R) 16 program.  It is based on
 the Gaussian(R) 09 system (copyright 2009, Gaussian, Inc.),
 the Gaussian(R) 03 system (copyright 2003, Gaussian, Inc.),
 the Gaussian(R) 98 system (copyright 1998, Gaussian, Inc.),
 the Gaussian(R) 94 system (copyright 1995, Gaussian, Inc.),
 the Gaussian 92(TM) system (copyright 1992, Gaussian, Inc.),
 the Gaussian 90(TM) system (copyright 1990, Gaussian, Inc.),
 the Gaussian 88(TM) system (copyright 1988, Gaussian, Inc.),
 the Gaussian 86(TM) system (copyright 1986, Carnegie Mellon
 University), and the Gaussian 82(TM) system (copyright 1983,
 Carnegie Mellon University). Gaussian is a federally registered
 trademark of Gaussian, Inc.
  
 This software contains proprietary and confidential information,
 including trade secrets, belonging to Gaussian, Inc.
  
 This software is provided under written license and may be
 used, copied, transmitted, or stored only in accord with that
 written license.
  
 The following legend is applicable only to US Government
 contracts under FAR:
  
                    RESTRICTED RIGHTS LEGEND
  
 Use, reproduction and disclosure by the US Government is
 subject to restrictions as set forth in subparagraphs (a)
 and (c) of the Commercial Computer Software - Restricted
 Rights clause in FAR 52.227-19.
  
 Gaussian, Inc.
 340 Quinnipiac St., Bldg. 40, Wallingford CT 06492
  
  
 ---------------------------------------------------------------
 Warning -- This program may not be used in any manner that
 competes with the business of Gaussian, Inc. or will provide
 assistance to any competitor of Gaussian, Inc.  The licensee
 of this program is prohibited from giving any competitor of
 Gaussian, Inc. access to this program.  By using this program,
 the user acknowledges that Gaussian, Inc. is engaged in the
 business of creating and licensing software in the field of
 computational chemistry and represents and warrants to the
 licensee that it is not a competitor of Gaussian, Inc. and that
 it will not use this program in any manner prohibited above.
 ---------------------------------------------------------------
  

 Cite this work as:
 Gaussian 16, Revision A.03,
 M. J. Frisch, G. W. Trucks, H. B. Schlegel, G. E. Scuseria, 
 M. A. Robb, J. R. Cheeseman, G. Scalmani, V. Barone, 
 G. A. Petersson, H. Nakatsuji, X. Li, M. Caricato, A. V. Marenich, 
 J. Bloino, B. G. Janesko, R. Gomperts, B. Mennucci, H. P. Hratchian, 
 J. V. Ortiz, A. F. Izmaylov, J. L. Sonnenberg, D. Williams-Young, 
 F. Ding, F. Lipparini, F. Egidi, J. Goings, B. Peng, A. Petrone, 
 T. Henderson, D. Ranasinghe, V. G. Zakrzewski, J. Gao, N. Rega, 
 G. Zheng, W. Liang, M. Hada, M. Ehara, K. Toyota, R. Fukuda, 
 J. Hasegawa, M. Ishida, T. Nakajima, Y. Honda, O. Kitao, H. Nakai, 
 T. Vreven, K. Throssell, J. A. Montgomery, Jr., J. E. Peralta, 
 F. Ogliaro, M. J. Bearpark, J. J. Heyd, E. N. Brothers, K. N. Kudin, 
 V. N. Staroverov, T. A. Keith, R. Kobayashi, J. Normand, 
 K. Raghavachari, A. P. Rendell, J. C. Burant, S. S. Iyengar, 
 J. Tomasi, M. Cossi, J. M. Millam, M. Klene, C. Adamo, R. Cammi, 
 J. W. Ochterski, R. L. Martin, K. Morokuma, O. Farkas, 
 J. B. Foresman, and D. J. Fox, Gaussian, Inc., Wallingford CT, 2016.
 
 ******************************************
 Gaussian 16:  ES64L-G16RevA.03 25-Dec-2016
                24-Jan-2026 
 ******************************************
 %nprocshared=16
 Will use up to   16 processors via shared memory.
 %mem=16GB
 %chk=DDL-LR-8.chk
 --------------------------------------------------------------------
 #p CAM-B3LYP TZVP em=gd3bj td(nstates=6,root=1) scrf=(Solvent=Water)
 --------------------------------------------------------------------
 1/38=1,172=1/1;
 2/12=2,17=6,18=5,40=1/2;
 3/5=19,7=101,11=9,25=1,30=1,70=2201,72=1,74=-40,124=41/1,2,3,8;
 4//1;
 5/5=2,38=5,53=1/2;
 8/6=1,10=1,107=1,108=6/1;
 9/8=1,41=6,42=1,70=2/14;
 6/7=2,8=2,9=2,10=2/1;
 99/5=1,9=1/99;
 Leave Link    1 at Sat Jan 24 16:07:21 2026, MaxMem=  2147483648 cpu:               0.4 elap:               0.1
 (Enter /data/home/wyx/g16/l101.exe)
 -------------------
 Title Card Required
 -------------------
 Symbolic Z-matrix:
 Charge =  0 Multiplicity = 1
 O                     2.75799  -1.55685   0.69794 
 O                    -3.31843  -1.65846  -0.9191 
 N                    -0.67901   1.5222    0.01579 
 H                    -0.98669   2.47778  -0.05977 
 C                    -1.24055  -0.76486  -0.16362 
 C                     0.65677   1.30927   0.21015 
 C                    -1.60986   0.53875  -0.26113 
 C                    -2.15241  -1.82488  -0.46128 
 C                     0.14236  -1.12018   0.32572 
 H                     0.09142  -1.52793   1.34227 
 H                     0.5597   -1.91926  -0.28644 
 C                     1.1152    0.0358    0.31045 
 C                     2.5026   -0.37442   0.46947 
 C                    -2.94206   1.07189  -0.64413 
 H                    -3.21433   1.94351  -0.0432 
 H                    -2.96686   1.37684  -1.69279 
 H                    -3.75215   0.35623  -0.52085 
 C                    -1.79386  -3.26093  -0.22985 
 H                    -2.63863  -3.87562   0.08416 
 H                    -1.40398  -3.71537  -1.14579 
 H                    -1.02219  -3.40152   0.52573 
 C                     3.66484   0.57792   0.33611 
 H                     3.56065   1.26468  -0.49976 
 H                     3.78488   1.16825   1.24554 
 H                     4.56177  -0.02181   0.20215 
 C                     1.43566   2.58741   0.2799 
 H                     2.19289   2.56861   1.05532 
 H                     1.92434   2.80165  -0.67094 
 H                     0.76993   3.4213    0.49794 
 
 ITRead=  0  0  0  0  0  0  0  0  0  0  0  0  0  0  0  0  0  0  0  0
 ITRead=  0  0  0  0  0  0  0  0  0
 MicOpt= -1 -1 -1 -1 -1 -1 -1 -1 -1 -1 -1 -1 -1 -1 -1 -1 -1 -1 -1 -1
 MicOpt= -1 -1 -1 -1 -1 -1 -1 -1 -1
 NAtoms=     29 NQM=       29 NQMF=       0 NMMI=      0 NMMIF=      0
                NMic=       0 NMicF=      0.
                    Isotopes and Nuclear Properties:
 (Nuclear quadrupole moments (NQMom) in fm**2, nuclear magnetic moments (NMagM)
  in nuclear magnetons)

  Atom         1           2           3           4           5           6           7           8           9          10
 IAtWgt=          16          16          14           1          12          12          12          12          12           1
 AtmWgt=  15.9949146  15.9949146  14.0030740   1.0078250  12.0000000  12.0000000  12.0000000  12.0000000  12.0000000   1.0078250
 NucSpn=           0           0           2           1           0           0           0           0           0           1
 AtZEff=  -0.0000000  -0.0000000  -0.0000000  -0.0000000  -0.0000000  -0.0000000  -0.0000000  -0.0000000  -0.0000000  -0.0000000
 NQMom=    0.0000000   0.0000000   2.0440000   0.0000000   0.0000000   0.0000000   0.0000000   0.0000000   0.0000000   0.0000000
 NMagM=    0.0000000   0.0000000   0.4037610   2.7928460   0.0000000   0.0000000   0.0000000   0.0000000   0.0000000   2.7928460
 AtZNuc=   8.0000000   8.0000000   7.0000000   1.0000000   6.0000000   6.0000000   6.0000000   6.0000000   6.0000000   1.0000000

  Atom        11          12          13          14          15          16          17          18          19          20
 IAtWgt=           1          12          12          12           1           1           1          12           1           1
 AtmWgt=   1.0078250  12.0000000  12.0000000  12.0000000   1.0078250   1.0078250   1.0078250  12.0000000   1.0078250   1.0078250
 NucSpn=           1           0           0           0           1           1           1           0           1           1
 AtZEff=  -0.0000000  -0.0000000  -0.0000000  -0.0000000  -0.0000000  -0.0000000  -0.0000000  -0.0000000  -0.0000000  -0.0000000
 NQMom=    0.0000000   0.0000000   0.0000000   0.0000000   0.0000000   0.0000000   0.0000000   0.0000000   0.0000000   0.0000000
 NMagM=    2.7928460   0.0000000   0.0000000   0.0000000   2.7928460   2.7928460   2.7928460   0.0000000   2.7928460   2.7928460
 AtZNuc=   1.0000000   6.0000000   6.0000000   6.0000000   1.0000000   1.0000000   1.0000000   6.0000000   1.0000000   1.0000000

  Atom        21          22          23          24          25          26          27          28          29
 IAtWgt=           1          12           1           1           1          12           1           1           1
 AtmWgt=   1.0078250  12.0000000   1.0078250   1.0078250   1.0078250  12.0000000   1.0078250   1.0078250   1.0078250
 NucSpn=           1           0           1           1           1           0           1           1           1
 AtZEff=  -0.0000000  -0.0000000  -0.0000000  -0.0000000  -0.0000000  -0.0000000  -0.0000000  -0.0000000  -0.0000000
 NQMom=    0.0000000   0.0000000   0.0000000   0.0000000   0.0000000   0.0000000   0.0000000   0.0000000   0.0000000
 NMagM=    2.7928460   0.0000000   2.7928460   2.7928460   2.7928460   0.0000000   2.7928460   2.7928460   2.7928460
 AtZNuc=   1.0000000   6.0000000   1.0000000   1.0000000   1.0000000   6.0000000   1.0000000   1.0000000   1.0000000
 Leave Link  101 at Sat Jan 24 16:07:21 2026, MaxMem=  2147483648 cpu:               0.8 elap:               0.1
 (Enter /data/home/wyx/g16/l202.exe)
                          Input orientation:                          
 ---------------------------------------------------------------------
 Center     Atomic      Atomic             Coordinates (Angstroms)
 Number     Number       Type             X           Y           Z
 ---------------------------------------------------------------------
      1          8           0        2.757988   -1.556846    0.697942
      2          8           0       -3.318432   -1.658458   -0.919099
      3          7           0       -0.679008    1.522195    0.015791
      4          1           0       -0.986691    2.477782   -0.059774
      5          6           0       -1.240545   -0.764858   -0.163619
      6          6           0        0.656772    1.309271    0.210153
      7          6           0       -1.609855    0.538750   -0.261129
      8          6           0       -2.152406   -1.824880   -0.461280
      9          6           0        0.142357   -1.120184    0.325722
     10          1           0        0.091423   -1.527928    1.342268
     11          1           0        0.559703   -1.919262   -0.286436
     12          6           0        1.115198    0.035804    0.310449
     13          6           0        2.502600   -0.374418    0.469468
     14          6           0       -2.942056    1.071888   -0.644132
     15          1           0       -3.214333    1.943510   -0.043202
     16          1           0       -2.966862    1.376836   -1.692792
     17          1           0       -3.752151    0.356231   -0.520849
     18          6           0       -1.793861   -3.260932   -0.229849
     19          1           0       -2.638627   -3.875619    0.084155
     20          1           0       -1.403977   -3.715366   -1.145791
     21          1           0       -1.022193   -3.401523    0.525730
     22          6           0        3.664840    0.577920    0.336114
     23          1           0        3.560651    1.264677   -0.499761
     24          1           0        3.784878    1.168252    1.245542
     25          1           0        4.561771   -0.021814    0.202152
     26          6           0        1.435664    2.587414    0.279899
     27          1           0        2.192886    2.568609    1.055322
     28          1           0        1.924335    2.801646   -0.670939
     29          1           0        0.769929    3.421304    0.497944
 ---------------------------------------------------------------------
                    Distance matrix (angstroms):
                    1          2          3          4          5
     1  O    0.000000
     2  O    6.288722   0.000000
     3  N    4.664629   4.237586   0.000000
     4  H    5.556526   4.825343   1.006740   0.000000
     5  C    4.166269   2.384719   2.361805   3.254219   0.000000
     6  C    3.587154   5.087718   1.366536   2.034514   2.835759
     7  C    4.938562   2.860049   1.382145   2.046637   1.358415
     8  C    5.052485   1.263689   3.688009   4.475824   1.429594
     9  C    2.677825   3.717039   2.784397   3.790609   1.509347
    10  H    2.743458   4.093645   3.414141   4.378786   2.150374
    11  H    2.435734   3.938047   3.670064   4.666552   2.142108
    12  C    2.320656   4.902998   2.348480   3.243187   2.532849
    13  C    1.231081   6.120563   3.731701   4.537653   3.816330
    14  C    6.418871   2.769847   2.399929   2.478198   2.549445
    15  H    6.962069   3.708397   2.570770   2.290875   3.353445
    16  H    6.862653   3.152017   2.859136   2.792831   3.147284
    17  H    6.893999   2.098973   3.330415   3.515869   2.773557
    18  C    4.948134   2.316745   4.917473   5.797697   2.557524
    19  H    5.905666   2.526748   5.742924   6.566225   3.419482
    20  H    5.037908   2.819113   5.413585   6.301479   3.113980
    21  H    4.209781   3.224674   4.961936   5.908494   2.734023
    22  C    2.347451   7.439290   4.456824   5.040133   5.110341
    23  H    3.168557   7.486144   4.278647   4.726894   5.223360
    24  H    2.963196   7.945626   4.643688   5.117283   5.565746
    25  H    2.419869   8.126094   5.466668   6.091142   5.861124
    26  C    4.370148   6.485866   2.382495   2.448510   4.312369
    27  H    4.179287   7.220877   3.228526   3.370667   4.938245
    28  H    4.643842   6.887722   2.980937   2.992070   4.795184
    29  H    5.364173   6.672832   2.436905   2.070506   4.690802
                    6          7          8          9         10
     6  C    0.000000
     7  C    2.439961   0.000000
     8  C    4.262066   2.433345   0.000000
     9  C    2.486007   2.483285   2.526243   0.000000
    10  H    3.106606   3.120318   2.894086   1.096456   0.000000
    11  H    3.267943   3.278635   2.719377   1.089698   1.739283
    12  C    1.357178   2.829412   3.838613   1.510947   2.134953
    13  C    2.511799   4.275504   4.963790   2.479431   2.811786
    14  C    3.706443   1.485156   3.008030   3.906328   4.461706
    15  H    3.930891   2.143640   3.937416   4.559572   4.989833
    16  H    4.093469   2.143249   3.525755   4.469536   5.196379
    17  H    4.569601   2.165687   2.705546   4.250138   4.668439
    18  C    5.204417   3.804263   1.498119   2.939456   3.004854
    19  H    6.144804   4.545794   2.177026   3.922327   3.814141
    20  H    5.597522   4.350002   2.145376   3.360278   3.634769
    21  H    5.010997   4.060818   2.176551   2.569180   2.327495
    22  C    3.098260   5.308544   6.344260   3.910441   4.268050
    23  H    2.989729   5.226667   6.495065   4.248967   4.819466
    24  H    3.298024   5.636442   6.864650   4.398973   4.573877
    25  H    4.125636   6.214324   6.983650   4.555536   4.853067
    26  C    1.498395   3.710111   5.735149   3.926961   4.457763
    27  H    2.158678   4.507129   6.362734   4.283011   4.613036
    28  H    2.147143   4.216532   6.169969   4.421485   5.114468
    29  H    2.134552   3.814273   6.081332   4.587878   5.066375
                   11         12         13         14         15
    11  H    0.000000
    12  C    2.118285   0.000000
    13  C    2.594761   1.455491   0.000000
    14  C    4.619225   4.294881   5.742489   0.000000
    15  H    5.405878   4.744391   6.190230   1.093150   0.000000
    16  H    5.027799   4.740734   6.136552   1.092381   1.761678
    17  H    4.881076   4.948213   6.374675   1.087942   1.742656
    18  C    2.709713   4.429787   5.223082   4.501479   5.398036
    19  H    3.767491   5.426015   6.232102   5.010020   5.848925
    20  H    2.796519   4.747437   5.388167   5.053232   6.042844
    21  H    2.314974   4.053394   4.646579   5.006581   5.805044
    22  C    4.033034   2.606765   1.508487   6.697459   7.023656
    23  H    4.380487   2.854262   2.178419   6.507166   6.824197
    24  H    4.720323   3.046970   2.150897   6.987975   7.158969
    25  H    4.455960   3.448755   2.106175   7.630190   8.024369
    26  C    4.625816   2.571837   3.153845   4.723884   4.705473
    27  H    4.960704   2.851552   3.016713   5.612125   5.552974
    28  H    4.929202   3.044291   3.423785   5.164740   5.247510
    29  H    5.401953   3.408222   4.172585   4.539045   4.283813
                   16         17         18         19         20
    16  H    0.000000
    17  H    1.741196   0.000000
    18  C    5.002502   4.123524   0.000000
    19  H    5.554598   4.417524   1.090902   0.000000
    20  H    5.354656   4.741558   1.094290   1.750088   0.000000
    21  H    5.615718   4.761167   1.089099   1.741440   1.743054
    22  C    6.980988   7.469624   6.697351   7.722123   6.805972
    23  H    6.636590   7.369043   7.016038   8.074320   7.061566
    24  H    7.366363   7.783722   7.274392   8.249295   7.516144
    25  H    7.888431   8.353858   7.146507   8.167709   7.144888
    26  C    4.973856   5.703753   6.700211   7.642575   7.058413
    27  H    5.966192   6.536237   7.178396   8.112630   7.567738
    28  H    5.195967   6.182643   7.125615   8.122602   7.333116
    29  H    4.789862   5.557141   7.194093   8.064401   7.639358
                   21         22         23         24         25
    21  H    0.000000
    22  C    6.151439   0.000000
    23  H    6.620235   1.086820   0.000000
    24  H    6.671499   1.090853   1.762288   0.000000
    25  H    6.535120   1.087250   1.774819   1.763089   0.000000
    26  C    6.478338   3.001741   2.621655   2.909518   4.072672
    27  H    6.801447   2.578129   2.447305   2.128761   3.612452
    28  H    6.970893   2.998078   2.251467   3.130894   3.961096
    29  H    7.054321   4.060977   3.665322   3.837325   5.130363
                   26         27         28         29
    26  C    0.000000
    27  H    1.083983   0.000000
    28  H    1.090315   1.762499   0.000000
    29  H    1.089091   1.750019   1.755824   0.000000
 Stoichiometry    C11H15NO2
 Framework group  C1[X(C11H15NO2)]
 Deg. of freedom    81
 Full point group                 C1      NOp   1
 Largest Abelian subgroup         C1      NOp   1
 Largest concise Abelian subgroup C1      NOp   1
                         Standard orientation:                         
 ---------------------------------------------------------------------
 Center     Atomic      Atomic             Coordinates (Angstroms)
 Number     Number       Type             X           Y           Z
 ---------------------------------------------------------------------
      1          8           0       -2.269844   -2.302246   -0.121830
      2          8           0        3.646431   -0.213873    0.307610
      3          7           0       -0.051364    1.800819   -0.166164
      4          1           0       -0.086081    2.806957   -0.168706
      5          6           0        1.290486   -0.139547   -0.054173
      6          6           0       -1.242539    1.134577   -0.098015
      7          6           0        1.195671    1.215555   -0.053490
      8          6           0        2.550156   -0.801288    0.083922
      9          6           0        0.054345   -0.979854   -0.263856
     10          1           0        0.067267   -1.429963   -1.263582
     11          1           0        0.052378   -1.818747    0.431627
     12          6           0       -1.240815   -0.222538   -0.084994
     13          6           0       -2.405054   -1.088246    0.031407
     14          6           0        2.305048    2.196629    0.058156
     15          1           0        2.150052    3.055579   -0.599992
     16          1           0        2.403147    2.578559    1.076882
     17          1           0        3.278813    1.788339   -0.203948
     18          6           0        2.677716   -2.288147   -0.047758
     19          1           0        3.615509   -2.605997   -0.505560
     20          1           0        2.633968   -2.769215    0.934143
     21          1           0        1.884656   -2.743262   -0.639418
     22          6           0       -3.783815   -0.575889    0.366135
     23          1           0       -3.781676    0.173066    1.153687
     24          1           0       -4.256180   -0.138752   -0.514628
     25          1           0       -4.379589   -1.429481    0.680057
     26          6           0       -2.415934    2.064728   -0.041904
     27          1           0       -3.241340    1.727029   -0.658090
     28          1           0       -2.776639    2.180307    0.980505
     29          1           0       -2.129026    3.052929   -0.398641
 ---------------------------------------------------------------------
 Rotational constants (GHZ):           1.0952175           0.4848509           0.3422638
 Leave Link  202 at Sat Jan 24 16:07:21 2026, MaxMem=  2147483648 cpu:               0.0 elap:               0.0
 (Enter /data/home/wyx/g16/l301.exe)
 Standard basis: TZVP (5D, 7F)
 Ernie: Thresh=  0.10000D-02 Tol=  0.10000D-05 Strict=F.
 There are   370 symmetry adapted cartesian basis functions of A   symmetry.
 There are   356 symmetry adapted basis functions of A   symmetry.
   356 basis functions,   610 primitive gaussians,   370 cartesian basis functions
    52 alpha electrons       52 beta electrons
       nuclear repulsion energy       899.6875756740 Hartrees.
 IExCor=20419 DFT=T Ex+Corr=CAM-B3LYP ExCW=0 ScaHFX=  1.000000
 ScaDFX=  1.000000  1.000000  1.000000  0.810000 ScalE2=  1.000000  1.000000
 IRadAn=      5 IRanWt=     -1 IRanGd=            0 ICorTp=0 IEmpDi=141
 HFx  wShort=  0.000000 wLong=  0.330000 cFull=  0.190000 cShort=  0.000000 cLong=  0.460000
 DFx  wShort=  0.000000 wLong=  0.330000 cFull=  0.190000 cShort=  0.000000 cLong=  0.460000
 NAtoms=   29 NActive=   29 NUniq=   29 SFac= 1.00D+00 NAtFMM=   60 NAOKFM=F Big=F
 Integral buffers will be    131072 words long.
 Raffenetti 1 integral format.
 Two-electron integral symmetry is turned on.
 R6Disp:  Grimme-D3(BJ) Dispersion energy=       -0.0261252170 Hartrees.
 Nuclear repulsion after empirical dispersion term =      899.6614504571 Hartrees.
 ------------------------------------------------------------------------------
 Polarizable Continuum Model (PCM)
 =================================
 Model                : PCM.
 Atomic radii         : UFF (Universal Force Field).
 Polarization charges : Total charges.
 Charge compensation  : None.
 Solution method      : On-the-fly selection.
 Cavity type          : Scaled VdW (van der Waals Surface) (Alpha=1.100).
 Cavity algorithm     : GePol (No added spheres)
                        Default sphere list used, NSphG=   29.
                        Lebedev-Laikov grids with approx.  5.0 points / Ang**2.
                        Smoothing algorithm: York/Karplus (Gamma=1.0000).
                        Polarization charges: spherical gaussians, with
                                              point-specific exponents (IZeta= 3).
                        Self-potential: point-specific (ISelfS= 7).
                        Self-field    : sphere-specific E.n sum rule (ISelfD= 2).
 Solvent              : Water, Eps=  78.355300 Eps(inf)=   1.777849
 ------------------------------------------------------------------------------
 GePol: Number of generator spheres                  =      29
 GePol: Total number of spheres                      =      29
 GePol: Number of exposed spheres                    =      29 (100.00%)
 GePol: Number of points                             =    2118
 GePol: Average weight of points                     =       0.13
 GePol: Minimum weight of points                     =   0.57D-09
 GePol: Maximum weight of points                     =    0.20577
 GePol: Number of points with low weight             =     144
 GePol: Fraction of low-weight points (<1% of avg)   =       6.80%
 GePol: Cavity surface area                          =    268.934 Ang**2
 GePol: Cavity volume                                =    286.451 Ang**3
 Leave Link  301 at Sat Jan 24 16:07:21 2026, MaxMem=  2147483648 cpu:               0.6 elap:               0.0
 (Enter /data/home/wyx/g16/l302.exe)
 NPDir=0 NMtPBC=     1 NCelOv=     1 NCel=       1 NClECP=     1 NCelD=      1
         NCelK=      1 NCelE2=     1 NClLst=     1 CellRange=     0.0.
 One-electron integrals computed using PRISM.
 One-electron integral symmetry used in STVInt
 NBasis=   356 RedAO= T EigKep=  4.15D-05  NBF=   356
 NBsUse=   356 1.00D-06 EigRej= -1.00D+00 NBFU=   356
 Precomputing XC quadrature grid using
 IXCGrd= 4 IRadAn=           5 IRanWt=          -1 IRanGd=           0 AccXCQ= 0.00D+00.
 Generated NRdTot=       0 NPtTot=           0 NUsed=           0 NTot=          32
 NSgBfM=   366   366   366   366   366 MxSgAt=    29 MxSgA2=    29.
 Leave Link  302 at Sat Jan 24 16:07:22 2026, MaxMem=  2147483648 cpu:               3.1 elap:               0.2
 (Enter /data/home/wyx/g16/l303.exe)
 DipDrv:  MaxL=1.
 Leave Link  303 at Sat Jan 24 16:07:22 2026, MaxMem=  2147483648 cpu:               0.6 elap:               0.0
 (Enter /data/home/wyx/g16/l308.exe)
 Leave Link  308 at Sat Jan 24 16:07:22 2026, MaxMem=  2147483648 cpu:               0.7 elap:               0.1
 (Enter /data/home/wyx/g16/l401.exe)
 ExpMin= 9.52D-02 ExpMax= 2.70D+04 ExpMxC= 9.22D+02 IAcc=3 IRadAn=         5 AccDes= 0.00D+00
 Harris functional with IExCor=20419 and IRadAn=       5 diagonalized for initial guess.
 HarFok:  IExCor=20419 AccDes= 0.00D+00 IRadAn=         5 IDoV= 1 UseB2=F ITyADJ=14
 ICtDFT=  3500011 ScaDFX=  1.000000  1.000000  1.000000  1.000000
 FoFCou: FMM=F IPFlag=           0 FMFlag=      100000 FMFlg1=           0
         NFxFlg=           0 DoJE=T BraDBF=F KetDBF=T FulRan=T
         wScrn=  0.000000 ICntrl=       500 IOpCl=  0 I1Cent=   200000004 NGrid=           0
         NMat0=    1 NMatS0=      1 NMatT0=    0 NMatD0=    1 NMtDS0=    0 NMtDT0=    0
 Petite list used in FoFCou.
 Harris En= -608.710807991574    
 JPrj=0 DoOrth=F DoCkMO=F.
 Leave Link  401 at Sat Jan 24 16:07:23 2026, MaxMem=  2147483648 cpu:              11.8 elap:               0.8
 (Enter /data/home/wyx/g16/l502.exe)
 Integral symmetry usage will be decided dynamically.
 Closed shell SCF:
 Using DIIS extrapolation, IDIIS=  1040.
 NGot=  2147483648 LenX=  2147200095 LenY=  2147062754
 Requested convergence on RMS density matrix=1.00D-08 within 128 cycles.
 Requested convergence on MAX density matrix=1.00D-06.
 Requested convergence on             energy=1.00D-06.
 No special actions if energy rises.
 Fock matrices will be formed incrementally for  20 cycles.

 Cycle   1  Pass 1  IDiag  1:
 FoFJK:  IHMeth= 1 ICntrl=       0 DoSepK=T KAlg= 0 I1Cent=           0 FoldK=F
 IRaf=         1 NMat=       1 IRICut=       1 DoRegI=T DoRafI=F ISym2E= 0 IDoP0=0 IntGTp=1.
 FoFCou: FMM=F IPFlag=           0 FMFlag=      100000 FMFlg1=           0
         NFxFlg=           0 DoJE=T BraDBF=F KetDBF=F FulRan=T
         wScrn=  0.000000 ICntrl=       500 IOpCl=  0 I1Cent=           0 NGrid=           0
         NMat0=    1 NMatS0=      1 NMatT0=    0 NMatD0=    1 NMtDS0=    0 NMtDT0=    0
 Symmetry not used in FoFCou.
 Inv3:  Mode=1 IEnd=    13457772.
 Iteration    1 A*A^-1 deviation from unit magnitude is 3.33D-15 for   1771.
 Iteration    1 A*A^-1 deviation from orthogonality  is 1.78D-15 for   2006     54.
 Iteration    1 A^-1*A deviation from unit magnitude is 3.55D-15 for   1771.
 Iteration    1 A^-1*A deviation from orthogonality  is 2.33D-15 for   1368    879.
 E= -633.127811936786    
 DIIS: error= 4.23D-02 at cycle   1 NSaved=   1.
 NSaved= 1 IEnMin= 1 EnMin= -633.127811936786     IErMin= 1 ErrMin= 4.23D-02
 ErrMax= 4.23D-02  0.00D+00 EMaxC= 1.00D-01 BMatC= 1.10D+00 BMatP= 1.10D+00
 IDIUse=3 WtCom= 5.77D-01 WtEn= 4.23D-01
 Coeff-Com:  0.100D+01
 Coeff-En:   0.100D+01
 Coeff:      0.100D+01
 Gap=     0.226 Goal=   None    Shift=    0.000
 GapD=    0.226 DampG=1.000 DampE=0.500 DampFc=0.5000 IDamp=-1.
 Damping current iteration by 5.00D-01
 RMSDP=4.07D-03 MaxDP=1.57D-01              OVMax= 1.41D-01

 Cycle   2  Pass 1  IDiag  1:
 RMSU=  1.76D-03    CP:  9.27D-01
 E= -633.223572043765     Delta-E=       -0.095760106979 Rises=F Damp=T
 DIIS: error= 1.94D-02 at cycle   2 NSaved=   2.
 NSaved= 2 IEnMin= 2 EnMin= -633.223572043765     IErMin= 2 ErrMin= 1.94D-02
 ErrMax= 1.94D-02  0.00D+00 EMaxC= 1.00D-01 BMatC= 2.23D-01 BMatP= 1.10D+00
 IDIUse=3 WtCom= 8.06D-01 WtEn= 1.94D-01
 Coeff-Com: -0.595D+00 0.160D+01
 Coeff-En:   0.000D+00 0.100D+01
 Coeff:     -0.480D+00 0.148D+01
 Gap=     0.239 Goal=   None    Shift=    0.000
 RMSDP=1.46D-03 MaxDP=4.49D-02 DE=-9.58D-02 OVMax= 1.33D-01

 Cycle   3  Pass 1  IDiag  1:
 RMSU=  1.38D-03    CP:  9.07D-01  1.23D+00
 E= -633.273909044274     Delta-E=       -0.050337000509 Rises=F Damp=F
 DIIS: error= 1.17D-02 at cycle   3 NSaved=   3.
 NSaved= 3 IEnMin= 3 EnMin= -633.273909044274     IErMin= 3 ErrMin= 1.17D-02
 ErrMax= 1.17D-02  0.00D+00 EMaxC= 1.00D-01 BMatC= 6.20D-02 BMatP= 2.23D-01
 IDIUse=3 WtCom= 8.83D-01 WtEn= 1.17D-01
 Coeff-Com: -0.362D+00 0.793D+00 0.569D+00
 Coeff-En:   0.000D+00 0.000D+00 0.100D+01
 Coeff:     -0.320D+00 0.701D+00 0.619D+00
 Gap=     0.236 Goal=   None    Shift=    0.000
 RMSDP=1.45D-03 MaxDP=7.24D-02 DE=-5.03D-02 OVMax= 7.36D-02

 Cycle   4  Pass 1  IDiag  1:
 RMSU=  5.11D-04    CP:  8.53D-01  1.74D+00  5.12D-01
 E= -633.320202528610     Delta-E=       -0.046293484337 Rises=F Damp=F
 DIIS: error= 3.91D-03 at cycle   4 NSaved=   4.
 NSaved= 4 IEnMin= 4 EnMin= -633.320202528610     IErMin= 4 ErrMin= 3.91D-03
 ErrMax= 3.91D-03  0.00D+00 EMaxC= 1.00D-01 BMatC= 6.58D-03 BMatP= 6.20D-02
 IDIUse=3 WtCom= 9.61D-01 WtEn= 3.91D-02
 Coeff-Com: -0.168D+00 0.364D+00 0.360D+00 0.444D+00
 Coeff-En:   0.000D+00 0.000D+00 0.107D-01 0.989D+00
 Coeff:     -0.161D+00 0.350D+00 0.346D+00 0.465D+00
 Gap=     0.231 Goal=   None    Shift=    0.000
 RMSDP=3.62D-04 MaxDP=2.08D-02 DE=-4.63D-02 OVMax= 1.44D-02

 Cycle   5  Pass 1  IDiag  1:
 RMSU=  9.80D-05    CP:  8.66D-01  1.66D+00  6.51D-01  6.45D-01
 E= -633.325171322121     Delta-E=       -0.004968793511 Rises=F Damp=F
 DIIS: error= 4.42D-04 at cycle   5 NSaved=   5.
 NSaved= 5 IEnMin= 5 EnMin= -633.325171322121     IErMin= 5 ErrMin= 4.42D-04
 ErrMax= 4.42D-04  0.00D+00 EMaxC= 1.00D-01 BMatC= 7.56D-05 BMatP= 6.58D-03
 IDIUse=3 WtCom= 9.96D-01 WtEn= 4.42D-03
 Coeff-Com: -0.347D-01 0.743D-01 0.852D-01 0.161D+00 0.714D+00
 Coeff-En:   0.000D+00 0.000D+00 0.000D+00 0.000D+00 0.100D+01
 Coeff:     -0.346D-01 0.740D-01 0.848D-01 0.160D+00 0.716D+00
 Gap=     0.232 Goal=   None    Shift=    0.000
 RMSDP=1.25D-04 MaxDP=6.73D-03 DE=-4.97D-03 OVMax= 2.14D-03

 Cycle   6  Pass 1  IDiag  1:
 RMSU=  4.96D-05    CP:  8.60D-01  1.69D+00  6.50D-01  7.75D-01  1.08D+00
 E= -633.325216994347     Delta-E=       -0.000045672226 Rises=F Damp=F
 DIIS: error= 4.12D-04 at cycle   6 NSaved=   6.
 NSaved= 6 IEnMin= 6 EnMin= -633.325216994347     IErMin= 6 ErrMin= 4.12D-04
 ErrMax= 4.12D-04  0.00D+00 EMaxC= 1.00D-01 BMatC= 2.46D-05 BMatP= 7.56D-05
 IDIUse=3 WtCom= 9.96D-01 WtEn= 4.12D-03
 Coeff-Com:  0.176D-01-0.384D-01-0.304D-01-0.102D-01 0.418D+00 0.643D+00
 Coeff-En:   0.000D+00 0.000D+00 0.000D+00 0.000D+00 0.142D+00 0.858D+00
 Coeff:      0.175D-01-0.383D-01-0.303D-01-0.102D-01 0.417D+00 0.644D+00
 Gap=     0.232 Goal=   None    Shift=    0.000
 RMSDP=2.81D-05 MaxDP=1.53D-03 DE=-4.57D-05 OVMax= 2.99D-03

 Cycle   7  Pass 1  IDiag  1:
 RMSU=  1.91D-05    CP:  8.61D-01  1.70D+00  6.54D-01  7.72D-01  1.22D+00
                    CP:  7.73D-01
 E= -633.325240617023     Delta-E=       -0.000023622676 Rises=F Damp=F
 DIIS: error= 3.45D-05 at cycle   7 NSaved=   7.
 NSaved= 7 IEnMin= 7 EnMin= -633.325240617023     IErMin= 7 ErrMin= 3.45D-05
 ErrMax= 3.45D-05  0.00D+00 EMaxC= 1.00D-01 BMatC= 8.34D-07 BMatP= 2.46D-05
 IDIUse=1 WtCom= 1.00D+00 WtEn= 0.00D+00
 Coeff-Com:  0.398D-02-0.856D-02-0.765D-02-0.110D-01-0.573D-02 0.140D+00
 Coeff-Com:  0.889D+00
 Coeff:      0.398D-02-0.856D-02-0.765D-02-0.110D-01-0.573D-02 0.140D+00
 Coeff:      0.889D+00
 Gap=     0.232 Goal=   None    Shift=    0.000
 RMSDP=1.66D-05 MaxDP=8.33D-04 DE=-2.36D-05 OVMax= 6.75D-04

 Cycle   8  Pass 1  IDiag  1:
 RMSU=  5.78D-06    CP:  8.60D-01  1.70D+00  6.55D-01  7.89D-01  1.27D+00
                    CP:  9.04D-01  1.06D+00
 E= -633.325241926982     Delta-E=       -0.000001309959 Rises=F Damp=F
 DIIS: error= 2.05D-05 at cycle   8 NSaved=   8.
 NSaved= 8 IEnMin= 8 EnMin= -633.325241926982     IErMin= 8 ErrMin= 2.05D-05
 ErrMax= 2.05D-05  0.00D+00 EMaxC= 1.00D-01 BMatC= 1.39D-07 BMatP= 8.34D-07
 IDIUse=1 WtCom= 1.00D+00 WtEn= 0.00D+00
 Coeff-Com: -0.396D-03 0.926D-03 0.358D-03-0.431D-02-0.633D-01-0.140D-01
 Coeff-Com:  0.346D+00 0.735D+00
 Coeff:     -0.396D-03 0.926D-03 0.358D-03-0.431D-02-0.633D-01-0.140D-01
 Coeff:      0.346D+00 0.735D+00
 Gap=     0.232 Goal=   None    Shift=    0.000
 RMSDP=5.52D-06 MaxDP=3.30D-04 DE=-1.31D-06 OVMax= 3.68D-04

 Cycle   9  Pass 1  IDiag  1:
 RMSU=  2.18D-06    CP:  8.60D-01  1.70D+00  6.55D-01  7.94D-01  1.29D+00
                    CP:  9.34D-01  1.18D+00  1.07D+00
 E= -633.325242134237     Delta-E=       -0.000000207255 Rises=F Damp=F
 DIIS: error= 8.17D-06 at cycle   9 NSaved=   9.
 NSaved= 9 IEnMin= 9 EnMin= -633.325242134237     IErMin= 9 ErrMin= 8.17D-06
 ErrMax= 8.17D-06  0.00D+00 EMaxC= 1.00D-01 BMatC= 2.75D-08 BMatP= 1.39D-07
 IDIUse=1 WtCom= 1.00D+00 WtEn= 0.00D+00
 Coeff-Com: -0.867D-03 0.190D-02 0.157D-02-0.765D-04-0.280D-01-0.224D-01
 Coeff-Com:  0.204D-02 0.336D+00 0.709D+00
 Coeff:     -0.867D-03 0.190D-02 0.157D-02-0.765D-04-0.280D-01-0.224D-01
 Coeff:      0.204D-02 0.336D+00 0.709D+00
 Gap=     0.232 Goal=   None    Shift=    0.000
 RMSDP=2.01D-06 MaxDP=1.05D-04 DE=-2.07D-07 OVMax= 1.32D-04

 Cycle  10  Pass 1  IDiag  1:
 RMSU=  8.62D-07    CP:  8.60D-01  1.70D+00  6.54D-01  7.96D-01  1.30D+00
                    CP:  9.51D-01  1.20D+00  1.24D+00  8.42D-01
 E= -633.325242165956     Delta-E=       -0.000000031719 Rises=F Damp=F
 DIIS: error= 3.06D-06 at cycle  10 NSaved=  10.
 NSaved=10 IEnMin=10 EnMin= -633.325242165956     IErMin=10 ErrMin= 3.06D-06
 ErrMax= 3.06D-06  0.00D+00 EMaxC= 1.00D-01 BMatC= 4.80D-09 BMatP= 2.75D-08
 IDIUse=1 WtCom= 1.00D+00 WtEn= 0.00D+00
 Coeff-Com: -0.445D-03 0.964D-03 0.874D-03 0.562D-03-0.722D-02-0.932D-02
 Coeff-Com: -0.499D-01 0.839D-01 0.371D+00 0.610D+00
 Coeff:     -0.445D-03 0.964D-03 0.874D-03 0.562D-03-0.722D-02-0.932D-02
 Coeff:     -0.499D-01 0.839D-01 0.371D+00 0.610D+00
 Gap=     0.232 Goal=   None    Shift=    0.000
 RMSDP=7.59D-07 MaxDP=4.08D-05 DE=-3.17D-08 OVMax= 3.59D-05

 Cycle  11  Pass 1  IDiag  1:
 RMSU=  2.58D-07    CP:  8.60D-01  1.70D+00  6.54D-01  7.96D-01  1.30D+00
                    CP:  9.56D-01  1.21D+00  1.26D+00  1.01D+00  9.85D-01
 E= -633.325242170977     Delta-E=       -0.000000005021 Rises=F Damp=F
 DIIS: error= 8.99D-07 at cycle  11 NSaved=  11.
 NSaved=11 IEnMin=11 EnMin= -633.325242170977     IErMin=11 ErrMin= 8.99D-07
 ErrMax= 8.99D-07  0.00D+00 EMaxC= 1.00D-01 BMatC= 3.47D-10 BMatP= 4.80D-09
 IDIUse=1 WtCom= 1.00D+00 WtEn= 0.00D+00
 Coeff-Com:  0.269D-04-0.616D-04-0.236D-04 0.124D-03 0.235D-02 0.186D-02
 Coeff-Com: -0.175D-01-0.279D-01-0.720D-02 0.203D+00 0.845D+00
 Coeff:      0.269D-04-0.616D-04-0.236D-04 0.124D-03 0.235D-02 0.186D-02
 Coeff:     -0.175D-01-0.279D-01-0.720D-02 0.203D+00 0.845D+00
 Gap=     0.232 Goal=   None    Shift=    0.000
 RMSDP=2.83D-07 MaxDP=1.90D-05 DE=-5.02D-09 OVMax= 1.89D-05

 Cycle  12  Pass 1  IDiag  1:
 RMSU=  1.23D-07    CP:  8.60D-01  1.70D+00  6.54D-01  7.97D-01  1.30D+00
                    CP:  9.57D-01  1.21D+00  1.29D+00  1.00D+00  1.09D+00
                    CP:  1.06D+00
 E= -633.325242171558     Delta-E=       -0.000000000581 Rises=F Damp=F
 DIIS: error= 3.39D-07 at cycle  12 NSaved=  12.
 NSaved=12 IEnMin=12 EnMin= -633.325242171558     IErMin=12 ErrMin= 3.39D-07
 ErrMax= 3.39D-07  0.00D+00 EMaxC= 1.00D-01 BMatC= 3.62D-11 BMatP= 3.47D-10
 IDIUse=1 WtCom= 1.00D+00 WtEn= 0.00D+00
 Coeff-Com:  0.320D-04-0.706D-04-0.514D-04 0.244D-04 0.130D-02 0.124D-02
 Coeff-Com: -0.342D-02-0.144D-01-0.308D-01 0.275D-01 0.312D+00 0.707D+00
 Coeff:      0.320D-04-0.706D-04-0.514D-04 0.244D-04 0.130D-02 0.124D-02
 Coeff:     -0.342D-02-0.144D-01-0.308D-01 0.275D-01 0.312D+00 0.707D+00
 Gap=     0.232 Goal=   None    Shift=    0.000
 RMSDP=6.10D-08 MaxDP=2.28D-06 DE=-5.81D-10 OVMax= 4.39D-06

 Cycle  13  Pass 1  IDiag  1:
 RMSU=  2.78D-08    CP:  8.60D-01  1.70D+00  6.54D-01  7.97D-01  1.30D+00
                    CP:  9.57D-01  1.21D+00  1.30D+00  1.01D+00  1.12D+00
                    CP:  1.14D+00  1.11D+00
 E= -633.325242171624     Delta-E=       -0.000000000065 Rises=F Damp=F
 DIIS: error= 1.87D-07 at cycle  13 NSaved=  13.
 NSaved=13 IEnMin=13 EnMin= -633.325242171624     IErMin=13 ErrMin= 1.87D-07
 ErrMax= 1.87D-07  0.00D+00 EMaxC= 1.00D-01 BMatC= 4.56D-12 BMatP= 3.62D-11
 IDIUse=1 WtCom= 1.00D+00 WtEn= 0.00D+00
 Coeff-Com:  0.462D-05-0.956D-05-0.122D-04-0.210D-04-0.123D-03-0.259D-04
 Coeff-Com:  0.254D-02 0.264D-02-0.851D-02-0.329D-01-0.812D-01 0.171D+00
 Coeff-Com:  0.946D+00
 Coeff:      0.462D-05-0.956D-05-0.122D-04-0.210D-04-0.123D-03-0.259D-04
 Coeff:      0.254D-02 0.264D-02-0.851D-02-0.329D-01-0.812D-01 0.171D+00
 Coeff:      0.946D+00
 Gap=     0.232 Goal=   None    Shift=    0.000
 RMSDP=4.20D-08 MaxDP=1.49D-06 DE=-6.55D-11 OVMax= 3.14D-06

 Cycle  14  Pass 1  IDiag  1:
 RMSU=  1.75D-08    CP:  8.60D-01  1.70D+00  6.54D-01  7.97D-01  1.30D+00
                    CP:  9.57D-01  1.21D+00  1.30D+00  1.00D+00  1.14D+00
                    CP:  1.19D+00  1.31D+00  1.30D+00
 E= -633.325242171638     Delta-E=       -0.000000000014 Rises=F Damp=F
 DIIS: error= 8.21D-08 at cycle  14 NSaved=  14.
 NSaved=14 IEnMin=14 EnMin= -633.325242171638     IErMin=14 ErrMin= 8.21D-08
 ErrMax= 8.21D-08  0.00D+00 EMaxC= 1.00D-01 BMatC= 4.50D-13 BMatP= 4.56D-12
 IDIUse=1 WtCom= 1.00D+00 WtEn= 0.00D+00
 Coeff-Com: -0.290D-05 0.648D-05 0.444D-05-0.396D-05-0.146D-03-0.123D-03
 Coeff-Com:  0.539D-03 0.189D-02 0.268D-02-0.362D-02-0.413D-01-0.774D-01
 Coeff-Com:  0.120D-01 0.111D+01
 Coeff:     -0.290D-05 0.648D-05 0.444D-05-0.396D-05-0.146D-03-0.123D-03
 Coeff:      0.539D-03 0.189D-02 0.268D-02-0.362D-02-0.413D-01-0.774D-01
 Coeff:      0.120D-01 0.111D+01
 Gap=     0.232 Goal=   None    Shift=    0.000
 RMSDP=1.75D-08 MaxDP=7.14D-07 DE=-1.41D-11 OVMax= 1.63D-06

 Cycle  15  Pass 1  IDiag  1:
 RMSU=  5.57D-09    CP:  8.60D-01  1.70D+00  6.54D-01  7.97D-01  1.30D+00
                    CP:  9.57D-01  1.21D+00  1.30D+00  9.98D-01  1.14D+00
                    CP:  1.20D+00  1.38D+00  1.54D+00  1.36D+00
 E= -633.325242171639     Delta-E=       -0.000000000001 Rises=F Damp=F
 DIIS: error= 2.10D-08 at cycle  15 NSaved=  15.
 NSaved=15 IEnMin=15 EnMin= -633.325242171639     IErMin=15 ErrMin= 2.10D-08
 ErrMax= 2.10D-08  0.00D+00 EMaxC= 1.00D-01 BMatC= 1.20D-13 BMatP= 4.50D-13
 IDIUse=1 WtCom= 1.00D+00 WtEn= 0.00D+00
 Coeff-Com: -0.169D-05 0.363D-05 0.330D-05 0.159D-05-0.327D-04-0.487D-04
 Coeff-Com: -0.212D-03 0.145D-03 0.206D-02 0.415D-02-0.270D-02-0.480D-01
 Coeff-Com: -0.146D+00 0.368D+00 0.822D+00
 Coeff:     -0.169D-05 0.363D-05 0.330D-05 0.159D-05-0.327D-04-0.487D-04
 Coeff:     -0.212D-03 0.145D-03 0.206D-02 0.415D-02-0.270D-02-0.480D-01
 Coeff:     -0.146D+00 0.368D+00 0.822D+00
 Gap=     0.232 Goal=   None    Shift=    0.000
 RMSDP=6.30D-09 MaxDP=2.19D-07 DE=-7.96D-13 OVMax= 5.70D-07

 Error on total polarization charges =  0.01553
 SCF Done:  E(RCAM-B3LYP) =  -633.325242172     A.U. after   15 cycles
            NFock= 15  Conv=0.63D-08     -V/T= 2.0042
 KE= 6.306687884805D+02 PE=-3.275326401517D+03 EE= 1.111670920408D+03
 Leave Link  502 at Sat Jan 24 16:08:22 2026, MaxMem=  2147483648 cpu:             937.3 elap:              59.1
 (Enter /data/home/wyx/g16/l801.exe)
 DoSCS=F DFT=T ScalE2(SS,OS)=  1.000000  1.000000
 ExpMin= 9.52D-02 ExpMax= 2.70D+04 ExpMxC= 9.22D+02 IAcc=3 IRadAn=         5 AccDes= 0.00D+00
 HarFok:  IExCor=  205 AccDes= 0.00D+00 IRadAn=         5 IDoV=-2 UseB2=F ITyADJ=14
 ICtDFT= 12500011 ScaDFX=  1.000000  1.000000  1.000000  1.000000
 Largest valence mixing into a core orbital is  5.81D-05
 Largest core mixing into a valence orbital is  1.15D-05
 Range of M.O.s used for correlation:    15   356
 NBasis=   356 NAE=    52 NBE=    52 NFC=    14 NFV=     0
 NROrb=    342 NOA=    38 NOB=    38 NVA=   304 NVB=   304

 **** Warning!!: The largest alpha MO coefficient is  0.39452097D+02

 Leave Link  801 at Sat Jan 24 16:08:22 2026, MaxMem=  2147483648 cpu:               1.0 elap:               0.1
 (Enter /data/home/wyx/g16/l914.exe)
 RHF ground state
 Two-electron integrals replicated using symmetry.
 MDV=  2147483648 DFT=T DoStab=F Mixed=T DoRPA=T DoScal=F NonHer=T
 NEqPCM:  Using non-equilibrium solvation (IEInf=1, Eps=  78.3553, EpsInf=   1.7778)
 Inv3:  Mode=1 IEnd=    13457772.
 Iteration    1 A*A^-1 deviation from unit magnitude is 3.55D-15 for   1598.
 Iteration    1 A*A^-1 deviation from orthogonality  is 2.11D-15 for   1947    370.
 Iteration    1 A^-1*A deviation from unit magnitude is 3.77D-15 for   1598.
 Iteration    1 A^-1*A deviation from orthogonality  is 1.71D-15 for   1706    754.
 Making orbital integer symmetry assigments:
 Orbital symmetries:
       Occupied  (A) (A) (A) (A) (A) (A) (A) (A) (A) (A) (A) (A)
                 (A) (A) (A) (A) (A) (A) (A) (A) (A) (A) (A) (A)
                 (A) (A) (A) (A) (A) (A) (A) (A) (A) (A) (A) (A)
                 (A) (A) (A) (A) (A) (A) (A) (A) (A) (A) (A) (A)
                 (A) (A) (A) (A)
       Virtual   (A) (A) (A) (A) (A) (A) (A) (A) (A) (A) (A) (A)
                 (A) (A) (A) (A) (A) (A) (A) (A) (A) (A) (A) (A)
                 (A) (A) (A) (A) (A) (A) (A) (A) (A) (A) (A) (A)
                 (A) (A) (A) (A) (A) (A) (A) (A) (A) (A) (A) (A)
                 (A) (A) (A) (A) (A) (A) (A) (A) (A) (A) (A) (A)
                 (A) (A) (A) (A) (A) (A) (A) (A) (A) (A) (A) (A)
                 (A) (A) (A) (A) (A) (A) (A) (A) (A) (A) (A) (A)
                 (A) (A) (A) (A) (A) (A) (A) (A) (A) (A) (A) (A)
                 (A) (A) (A) (A) (A) (A) (A) (A) (A) (A) (A) (A)
                 (A) (A) (A) (A) (A) (A) (A) (A) (A) (A) (A) (A)
                 (A) (A) (A) (A) (A) (A) (A) (A) (A) (A) (A) (A)
                 (A) (A) (A) (A) (A) (A) (A) (A) (A) (A) (A) (A)
                 (A) (A) (A) (A) (A) (A) (A) (A) (A) (A) (A) (A)
                 (A) (A) (A) (A) (A) (A) (A) (A) (A) (A) (A) (A)
                 (A) (A) (A) (A) (A) (A) (A) (A) (A) (A) (A) (A)
                 (A) (A) (A) (A) (A) (A) (A) (A) (A) (A) (A) (A)
                 (A) (A) (A) (A) (A) (A) (A) (A) (A) (A) (A) (A)
                 (A) (A) (A) (A) (A) (A) (A) (A) (A) (A) (A) (A)
                 (A) (A) (A) (A) (A) (A) (A) (A) (A) (A) (A) (A)
                 (A) (A) (A) (A) (A) (A) (A) (A) (A) (A) (A) (A)
                 (A) (A) (A) (A) (A) (A) (A) (A) (A) (A) (A) (A)
                 (A) (A) (A) (A) (A) (A) (A) (A) (A) (A) (A) (A)
                 (A) (A) (A) (A) (A) (A) (A) (A) (A) (A) (A) (A)
                 (A) (A) (A) (A) (A) (A) (A) (A) (A) (A) (A) (A)
                 (A) (A) (A) (A) (A) (A) (A) (A) (A) (A) (A) (A)
                 (A) (A) (A) (A)
    24 initial guesses have been made.
 Convergence on wavefunction:    0.001000000000000
 Davidson Disk Diagonalization:  ConvIn= 1.00D-03 SkipCon=T Conv= 1.00D-03.
 Max sub-space:  2000 roots to seek:    24 dimension of matrix:        23104
 Iteration     1 Dimension    24 NMult     0 NNew     24
 CISAX will form    24 AO SS matrices at one time.
 NMat=    24 NSing=    24 JSym2X= 0.
 FoFJK:  IHMeth= 1 ICntrl=       0 DoSepK=T KAlg= 0 I1Cent=           0 FoldK=F
 IRaf=         1 NMat=      48 IRICut=       1 DoRegI=T DoRafI=F ISym2E= 0 IDoP0=3 IntGTp=3.
 New state      3 was old state      4
 New state      4 was old state      3
 New state      5 was old state      6
 New state      6 was old state      5
 Excitation Energies [eV] at current iteration:
 Root      1 :     3.814820567187319
 Root      2 :     3.978456542886392
 Root      3 :     4.512376431995520
 Root      4 :     5.490677396643997
 Root      5 :     6.303176474314501
 Root      6 :     6.453788797181915
 Root      7 :     6.718118993050518
 Root      8 :     6.760755797965261
 Root      9 :     6.933411596966756
 Root     10 :     7.208086174633291
 Root     11 :     7.260335111785147
 Root     12 :     7.387554159464355
 Root     13 :     7.562606214234393
 Root     14 :     7.684975361263509
 Root     15 :     7.751041005445246
 Root     16 :     7.794511343149694
 Root     17 :     8.048639438316256
 Root     18 :     8.228142483022934
 Root     19 :     8.303277516776602
 Root     20 :     8.399663496626468
 Root     21 :     8.569613139254809
 Root     22 :     8.804085539041095
 Root     23 :     8.858663156337357
 Root     24 :     9.213400590339649
 Iteration     2 Dimension    36 NMult    24 NNew     12
 CISAX will form    12 AO SS matrices at one time.
 NMat=    12 NSing=    12 JSym2X= 0.
 Root      1 not converged, maximum delta is    0.178573344690033
 Root      2 not converged, maximum delta is    0.170817649135631
 Root      3 not converged, maximum delta is    0.093141206677729
 Root      4 not converged, maximum delta is    0.295564518699951
 New state      5 was old state      6
 Root      5 not converged, maximum delta is    0.373754496486915
 New state      6 was old state      5
 Root      6 not converged, maximum delta is    0.244635567263658
 Excitation Energies [eV] at current iteration:
 Root      1 :     3.392465040979195   Change is   -0.422355526208124
 Root      2 :     3.738704129743690   Change is   -0.239752413142701
 Root      3 :     4.261161807412585   Change is   -0.251214624582935
 Root      4 :     5.150668212120153   Change is   -0.340009184523845
 Root      5 :     5.566167956012984   Change is   -0.887620841168932
 Root      6 :     6.178410549237801   Change is   -0.124765925076700
 Iteration     3 Dimension    48 NMult    36 NNew     12
 CISAX will form    12 AO SS matrices at one time.
 NMat=    12 NSing=    12 JSym2X= 0.
 Root      1 not converged, maximum delta is    0.009423529971852
 Root      2 not converged, maximum delta is    0.010361759962760
 Root      3 not converged, maximum delta is    0.016541957442484
 Root      4 not converged, maximum delta is    0.025633659918575
 Root      5 not converged, maximum delta is    0.025673176833479
 Root      6 not converged, maximum delta is    0.018642790797375
 Excitation Energies [eV] at current iteration:
 Root      1 :     3.374915766389035   Change is   -0.017549274590160
 Root      2 :     3.727857484834151   Change is   -0.010846644909539
 Root      3 :     4.247847413301032   Change is   -0.013314394111553
 Root      4 :     5.127454140033147   Change is   -0.023214072087006
 Root      5 :     5.540030486100477   Change is   -0.026137469912506
 Root      6 :     6.166907109834736   Change is   -0.011503439403065
 Iteration     4 Dimension    60 NMult    48 NNew     12
 CISAX will form    12 AO SS matrices at one time.
 NMat=    12 NSing=    12 JSym2X= 0.
 Root      1 not converged, maximum delta is    0.001912299776524
 Root      2 not converged, maximum delta is    0.001679699970017
 Root      3 not converged, maximum delta is    0.002244846827069
 Root      4 not converged, maximum delta is    0.002980510847421
 Root      5 not converged, maximum delta is    0.003825367572450
 Root      6 not converged, maximum delta is    0.003314022183228
 Excitation Energies [eV] at current iteration:
 Root      1 :     3.373510447712379   Change is   -0.001405318676656
 Root      2 :     3.727068310408401   Change is   -0.000789174425750
 Root      3 :     4.247193638406375   Change is   -0.000653774894657
 Root      4 :     5.125020937363852   Change is   -0.002433202669295
 Root      5 :     5.536948941584223   Change is   -0.003081544516254
 Root      6 :     6.166010424605800   Change is   -0.000896685228936
 Iteration     5 Dimension    72 NMult    60 NNew     12
 CISAX will form    12 AO SS matrices at one time.
 NMat=    12 NSing=    12 JSym2X= 0.
 Root      1 has converged.
 Root      2 has converged.
 Root      3 has converged.
 Root      4 has converged.
 Root      5 not converged, maximum delta is    0.001085706123068
 Root      6 not converged, maximum delta is    0.001009662162049
 Excitation Energies [eV] at current iteration:
 Root      1 :     3.373424927977944   Change is   -0.000085519734435
 Root      2 :     3.727032161099769   Change is   -0.000036149308632
 Root      3 :     4.247158472505014   Change is   -0.000035165901361
 Root      4 :     5.124850190564752   Change is   -0.000170746799100
 Root      5 :     5.536672428105083   Change is   -0.000276513479139
 Root      6 :     6.165943873815189   Change is   -0.000066550790611
 Iteration     6 Dimension    76 NMult    72 NNew      4
 CISAX will form     4 AO SS matrices at one time.
 NMat=     4 NSing=     4 JSym2X= 0.
 Root      1 has converged.
 Root      2 has converged.
 Root      3 has converged.
 Root      4 has converged.
 Root      5 has converged.
 Root      6 has converged.
 Excitation Energies [eV] at current iteration:
 Root      1 :     3.373424666863288   Change is   -0.000000261114656
 Root      2 :     3.727032063120305   Change is   -0.000000097979464
 Root      3 :     4.247158271111583   Change is   -0.000000201393432
 Root      4 :     5.124842538795154   Change is   -0.000007651769598
 Root      5 :     5.536653403292933   Change is   -0.000019024812151
 Root      6 :     6.165938963799960   Change is   -0.000004910015229
 Convergence achieved on expansion vectors.
 ***********************************************************************
 Excited states from <AA,BB:AA,BB> singles matrix:
 ***********************************************************************
 
 1PDM for each excited state written to RWF  633
 Ground to excited state transition densities written to RWF  633
 Ground to excited state transition electric dipole moments (Au):
       state          X           Y           Z        Dip. S.      Osc.
         1        -1.5204     -0.0768     -0.0358      2.3187      0.1916
         2         0.2672      0.0291      0.0480      0.0746      0.0068
         3         0.0079     -0.0865      0.0388      0.0090      0.0009
         4        -0.0046     -1.3141      0.0876      1.7345      0.2178
         5        -0.2363      1.4286     -0.0373      2.0981      0.2846
         6        -0.0405      0.1378      0.0659      0.0250      0.0038
 Ground to excited state transition velocity dipole moments (Au):
       state          X           Y           Z        Dip. S.      Osc.
         1         0.1821      0.0077      0.0047      0.0332      0.1787
         2        -0.0363     -0.0033     -0.0048      0.0013      0.0066
         3        -0.0012      0.0128     -0.0024      0.0002      0.0007
         4        -0.0031      0.2319     -0.0125      0.0539      0.1909
         5         0.0467     -0.2844      0.0074      0.0831      0.2723
         6         0.0102     -0.0278     -0.0341      0.0020      0.0060
 Ground to excited state transition magnetic dipole moments (Au):
       state          X           Y           Z
         1         0.1210      0.0358     -1.4048
         2         0.7454      0.2588      0.4245
         3        -0.0161     -0.9459     -0.0745
         4         0.0310      0.0545     -0.2769
         5        -0.1978     -0.1083      0.2569
         6         0.0215     -0.0063     -0.0045
 Ground to excited state transition velocity quadrupole moments (Au):
       state          XX          YY          ZZ          XY          XZ          YZ
         1         0.2714     -0.1146     -0.0049     -0.4864      0.0483     -0.0066
         2        -0.0527     -0.0028      0.0016      0.1031     -0.0411      0.0483
         3        -0.0084      0.0059     -0.0170     -0.0260      0.0659      0.0059
         4        -1.1836      0.2255      0.0128     -0.1924     -0.0558     -0.0299
         5         0.8577     -0.4058     -0.0392      0.0209      0.0688     -0.0562
         6        -0.1629     -0.1482      0.1334     -0.0179     -0.0132      0.0782
 <0|del|b> * <b|rxdel|0> + <0|del|b> * <b|delr+rdel|0>
 Rotatory Strengths (R) in cgs (10**-40 erg-esu-cm/Gauss)
       state          XX          YY          ZZ    R(velocity)    E-M Angle
         1       -25.4568     47.1804     68.1306     29.9514       86.49
         2        -9.0643    -78.2533    -67.0746    -51.4640      155.38
         3       -28.6878      0.2891    -25.3593    -17.9193      163.65
         4        59.0873      1.9827     -0.9349     20.0450       75.94
         5        91.0735    -17.5999      8.0601     27.1779       76.23
         6         0.8966      0.8782     -0.0618      0.5710       57.83
 1/2[<0|r|b>*<b|rxdel|0> + (<0|rxdel|b>*<b|r|0>)*]
 Rotatory Strengths (R) in cgs (10**-40 erg-esu-cm/Gauss)
       state          XX          YY          ZZ     R(length)
         1       130.1009      1.9477    -35.5805     32.1560
         2      -140.8497     -5.3314    -14.4207    -53.5339
         3         0.0894    -57.8555      2.0430    -18.5743
         4         0.1016     50.6542     17.1531     22.6363
         5       -33.0380    109.4352      6.7714     27.7228
         6         0.6143      0.6131      0.2112      0.4795
  1/2[<0|del|b>*<b|r|0> + (<0|r|b>*<b|del|0>)*] (Au)
       state          X           Y           Z        Dip. S.   Osc.(frdel)
         1        -0.2768     -0.0006     -0.0002      0.2776      0.1851
         2        -0.0097     -0.0001     -0.0002      0.0100      0.0067
         3        -0.0000     -0.0011     -0.0001      0.0012      0.0008
         4         0.0000     -0.3047     -0.0011      0.3058      0.2039
         5        -0.0110     -0.4063     -0.0003      0.4176      0.2784
         6        -0.0004     -0.0038     -0.0022      0.0065      0.0043

 Excitation energies and oscillator strengths:
 
 Excited State   1:      Singlet-A      3.3734 eV  367.53 nm  f=0.1916  <S**2>=0.000
      52 -> 53         0.69495
 This state for optimization and/or second-order correction.
 Total Energy, E(TD-HF/TD-DFT) =  -633.201271096    
 Copying the excited state density for this state as the 1-particle RhoCI density.
 
 Excited State   2:      Singlet-A      3.7270 eV  332.66 nm  f=0.0068  <S**2>=0.000
      51 -> 53         0.60282
      51 -> 54        -0.30425
 
 Excited State   3:      Singlet-A      4.2472 eV  291.92 nm  f=0.0009  <S**2>=0.000
      49 -> 53         0.12421
      49 -> 54         0.10380
      50 -> 53         0.52338
      50 -> 54         0.38626
      50 -> 58         0.11747
      51 -> 54         0.12517
 
 Excited State   4:      Singlet-A      5.1248 eV  241.93 nm  f=0.2178  <S**2>=0.000
      52 -> 54         0.69900
 
 Excited State   5:      Singlet-A      5.5367 eV  223.93 nm  f=0.2846  <S**2>=0.000
      49 -> 53         0.66937
      50 -> 53        -0.18017
 
 Excited State   6:      Singlet-A      6.1659 eV  201.08 nm  f=0.0038  <S**2>=0.000
      52 -> 55         0.66857
      52 -> 56         0.11125
 SavETr:  write IOETrn=   770 NScale= 10 NData=  16 NLR=1 NState=    6 LETran=     118.
 Leave Link  914 at Sat Jan 24 16:10:43 2026, MaxMem=  2147483648 cpu:            2240.2 elap:             140.8
 (Enter /data/home/wyx/g16/l601.exe)
 Copying SCF densities to generalized density rwf, IOpCl= 0 IROHF=0.

 **********************************************************************

            Population analysis using the SCF density.

 **********************************************************************

 Orbital symmetries:
       Occupied  (A) (A) (A) (A) (A) (A) (A) (A) (A) (A) (A) (A)
                 (A) (A) (A) (A) (A) (A) (A) (A) (A) (A) (A) (A)
                 (A) (A) (A) (A) (A) (A) (A) (A) (A) (A) (A) (A)
                 (A) (A) (A) (A) (A) (A) (A) (A) (A) (A) (A) (A)
                 (A) (A) (A) (A)
       Virtual   (A) (A) (A) (A) (A) (A) (A) (A) (A) (A) (A) (A)
                 (A) (A) (A) (A) (A) (A) (A) (A) (A) (A) (A) (A)
                 (A) (A) (A) (A) (A) (A) (A) (A) (A) (A) (A) (A)
                 (A) (A) (A) (A) (A) (A) (A) (A) (A) (A) (A) (A)
                 (A) (A) (A) (A) (A) (A) (A) (A) (A) (A) (A) (A)
                 (A) (A) (A) (A) (A) (A) (A) (A) (A) (A) (A) (A)
                 (A) (A) (A) (A) (A) (A) (A) (A) (A) (A) (A) (A)
                 (A) (A) (A) (A) (A) (A) (A) (A) (A) (A) (A) (A)
                 (A) (A) (A) (A) (A) (A) (A) (A) (A) (A) (A) (A)
                 (A) (A) (A) (A) (A) (A) (A) (A) (A) (A) (A) (A)
                 (A) (A) (A) (A) (A) (A) (A) (A) (A) (A) (A) (A)
                 (A) (A) (A) (A) (A) (A) (A) (A) (A) (A) (A) (A)
                 (A) (A) (A) (A) (A) (A) (A) (A) (A) (A) (A) (A)
                 (A) (A) (A) (A) (A) (A) (A) (A) (A) (A) (A) (A)
                 (A) (A) (A) (A) (A) (A) (A) (A) (A) (A) (A) (A)
                 (A) (A) (A) (A) (A) (A) (A) (A) (A) (A) (A) (A)
                 (A) (A) (A) (A) (A) (A) (A) (A) (A) (A) (A) (A)
                 (A) (A) (A) (A) (A) (A) (A) (A) (A) (A) (A) (A)
                 (A) (A) (A) (A) (A) (A) (A) (A) (A) (A) (A) (A)
                 (A) (A) (A) (A) (A) (A) (A) (A) (A) (A) (A) (A)
                 (A) (A) (A) (A) (A) (A) (A) (A) (A) (A) (A) (A)
                 (A) (A) (A) (A) (A) (A) (A) (A) (A) (A) (A) (A)
                 (A) (A) (A) (A) (A) (A) (A) (A) (A) (A) (A) (A)
                 (A) (A) (A) (A) (A) (A) (A) (A) (A) (A) (A) (A)
                 (A) (A) (A) (A) (A) (A) (A) (A) (A) (A) (A) (A)
                 (A) (A) (A) (A)
 The electronic state is 1-A.
 Alpha  occ. eigenvalues --  -19.17866 -19.16960 -14.44313 -10.33396 -10.33365
 Alpha  occ. eigenvalues --  -10.32247 -10.32203 -10.25668 -10.25106 -10.25082
 Alpha  occ. eigenvalues --  -10.25060 -10.24420 -10.24093 -10.23839  -1.11885
 Alpha  occ. eigenvalues --   -1.09826  -1.07725  -0.91473  -0.90576  -0.83915
 Alpha  occ. eigenvalues --   -0.82498  -0.81480  -0.78729  -0.74258  -0.71489
 Alpha  occ. eigenvalues --   -0.69088  -0.62030  -0.58465  -0.56934  -0.55151
 Alpha  occ. eigenvalues --   -0.54676  -0.54206  -0.52493  -0.51854  -0.50672
 Alpha  occ. eigenvalues --   -0.49770  -0.49364  -0.49073  -0.48396  -0.48269
 Alpha  occ. eigenvalues --   -0.46667  -0.45259  -0.44643  -0.43566  -0.42986
 Alpha  occ. eigenvalues --   -0.42434  -0.41895  -0.41145  -0.33010  -0.32301
 Alpha  occ. eigenvalues --   -0.31099  -0.26333
 Alpha virt. eigenvalues --   -0.03097   0.01973   0.06572   0.08330   0.08800
 Alpha virt. eigenvalues --    0.10208   0.10671   0.11970   0.12695   0.13666
 Alpha virt. eigenvalues --    0.14158   0.15542   0.15691   0.16566   0.16711
 Alpha virt. eigenvalues --    0.17487   0.17643   0.17894   0.18230   0.19096
 Alpha virt. eigenvalues --    0.19896   0.20891   0.22636   0.23275   0.23893
 Alpha virt. eigenvalues --    0.24440   0.24717   0.25475   0.25797   0.26386
 Alpha virt. eigenvalues --    0.27449   0.27823   0.28812   0.29660   0.30036
 Alpha virt. eigenvalues --    0.31418   0.32047   0.32660   0.33702   0.34747
 Alpha virt. eigenvalues --    0.35315   0.35817   0.36916   0.37705   0.38099
 Alpha virt. eigenvalues --    0.39618   0.41231   0.41746   0.42191   0.43041
 Alpha virt. eigenvalues --    0.44132   0.44725   0.45302   0.46239   0.46392
 Alpha virt. eigenvalues --    0.46831   0.48174   0.48203   0.48605   0.48932
 Alpha virt. eigenvalues --    0.49536   0.49887   0.50687   0.51459   0.51983
 Alpha virt. eigenvalues --    0.52003   0.52841   0.53447   0.53798   0.54394
 Alpha virt. eigenvalues --    0.54707   0.55657   0.55830   0.56851   0.58028
 Alpha virt. eigenvalues --    0.58721   0.59231   0.59685   0.61583   0.62292
 Alpha virt. eigenvalues --    0.63759   0.64666   0.66105   0.67052   0.67891
 Alpha virt. eigenvalues --    0.69751   0.70678   0.71278   0.71457   0.72579
 Alpha virt. eigenvalues --    0.73402   0.74701   0.75562   0.76843   0.78624
 Alpha virt. eigenvalues --    0.79413   0.80308   0.81373   0.85064   0.86473
 Alpha virt. eigenvalues --    0.88491   0.89835   0.96120   1.00938   1.23849
 Alpha virt. eigenvalues --    1.24482   1.26922   1.28102   1.29870   1.30795
 Alpha virt. eigenvalues --    1.32754   1.33066   1.34080   1.35780   1.36054
 Alpha virt. eigenvalues --    1.37363   1.37680   1.38603   1.39483   1.39680
 Alpha virt. eigenvalues --    1.40144   1.40970   1.41087   1.41816   1.42118
 Alpha virt. eigenvalues --    1.42839   1.43896   1.44410   1.45076   1.46704
 Alpha virt. eigenvalues --    1.48000   1.49492   1.49768   1.50853   1.51743
 Alpha virt. eigenvalues --    1.51789   1.52647   1.53484   1.55729   1.57291
 Alpha virt. eigenvalues --    1.58457   1.60254   1.60621   1.61405   1.61850
 Alpha virt. eigenvalues --    1.62885   1.63199   1.64470   1.65522   1.65819
 Alpha virt. eigenvalues --    1.66406   1.67111   1.67337   1.68720   1.68827
 Alpha virt. eigenvalues --    1.69335   1.70153   1.71122   1.72101   1.73408
 Alpha virt. eigenvalues --    1.73883   1.74347   1.75893   1.76879   1.79827
 Alpha virt. eigenvalues --    1.80711   1.83062   1.84590   1.85402   1.86248
 Alpha virt. eigenvalues --    1.86645   1.86814   1.88169   1.89748   1.90143
 Alpha virt. eigenvalues --    1.91574   1.93580   1.96479   1.98469   2.00906
 Alpha virt. eigenvalues --    2.01447   2.04308   2.05340   2.06941   2.09691
 Alpha virt. eigenvalues --    2.10937   2.14110   2.14178   2.18471   2.20003
 Alpha virt. eigenvalues --    2.21045   2.22584   2.23079   2.24119   2.25164
 Alpha virt. eigenvalues --    2.27427   2.28844   2.29812   2.31514   2.32407
 Alpha virt. eigenvalues --    2.34162   2.34610   2.36271   2.37655   2.39045
 Alpha virt. eigenvalues --    2.40438   2.40710   2.41188   2.44244   2.45017
 Alpha virt. eigenvalues --    2.45500   2.47881   2.48860   2.50036   2.51460
 Alpha virt. eigenvalues --    2.52868   2.53556   2.54287   2.56235   2.57802
 Alpha virt. eigenvalues --    2.58457   2.59919   2.60867   2.61842   2.63273
 Alpha virt. eigenvalues --    2.63871   2.66130   2.66698   2.67756   2.68510
 Alpha virt. eigenvalues --    2.69606   2.72190   2.72606   2.73806   2.74949
 Alpha virt. eigenvalues --    2.76486   2.76954   2.77474   2.78254   2.78943
 Alpha virt. eigenvalues --    2.79891   2.81231   2.83352   2.84603   2.85163
 Alpha virt. eigenvalues --    2.85809   2.86851   2.88305   2.89546   2.92786
 Alpha virt. eigenvalues --    2.97761   2.98609   2.99298   3.04406   3.09576
 Alpha virt. eigenvalues --    3.09801   3.11159   3.13509   3.18859   3.20033
 Alpha virt. eigenvalues --    3.21658   3.22405   3.23140   3.25074   3.26081
 Alpha virt. eigenvalues --    3.27024   3.29791   3.31817   3.35219   3.37362
 Alpha virt. eigenvalues --    3.38870   3.39433   3.40065   3.41014   3.41105
 Alpha virt. eigenvalues --    3.42056   3.44342   3.45366   3.46756   3.49772
 Alpha virt. eigenvalues --    3.50187   3.51446   3.54373   3.57624   3.59199
 Alpha virt. eigenvalues --    3.60985   3.90953   3.99648   4.31441   4.34989
 Alpha virt. eigenvalues --   21.63687  21.77045  22.05899  22.10248  22.11474
 Alpha virt. eigenvalues --   22.12806  22.15763  22.18278  22.21010  22.26145
 Alpha virt. eigenvalues --   22.30937  31.93205  43.63312  43.65553
          Condensed to atoms (all electrons):
               1          2          3          4          5          6
     1  O    7.952709   0.000000  -0.000229   0.000017   0.017099   0.016371
     2  O    0.000000   8.069801   0.000527   0.000033  -0.188105   0.001422
     3  N   -0.000229   0.000527   6.364692   0.373350  -0.102329   0.362719
     4  H    0.000017   0.000033   0.373350   0.395250   0.012810  -0.042194
     5  C    0.017099  -0.188105  -0.102329   0.012810   7.104340  -0.047021
     6  C    0.016371   0.001422   0.362719  -0.042194  -0.047021   5.588733
     7  C   -0.000217  -0.014395   0.364831  -0.043582   0.368299  -0.131544
     8  C   -0.000284   0.649956   0.004349  -0.000939  -0.431302   0.043667
     9  C   -0.017140   0.020257   0.017859   0.000274  -0.600785  -0.099403
    10  H    0.004352   0.000038   0.002992   0.000030  -0.029581  -0.008753
    11  H    0.013666  -0.000207  -0.001392   0.000001  -0.117969   0.022912
    12  C   -0.234970  -0.002956  -0.098723   0.016719   0.176855  -0.161071
    13  C    0.725395  -0.000014   0.000263   0.000451   0.068397   0.143110
    14  C   -0.000011  -0.055783  -0.046891  -0.000532  -0.019750  -0.004467
    15  H    0.000000   0.004811   0.004169  -0.000036   0.006672   0.004748
    16  H   -0.000000   0.000926  -0.003569   0.000533  -0.012929  -0.000259
    17  H    0.000000   0.020097   0.003700   0.000711   0.004525  -0.000435
    18  C   -0.000252  -0.099229  -0.000326   0.000018  -0.172482  -0.001645
    19  H   -0.000002   0.004304   0.000007  -0.000001   0.013923   0.000033
    20  H    0.000016  -0.000806   0.000013  -0.000001  -0.012412   0.000169
    21  H    0.000413   0.006508   0.000105   0.000000   0.071784  -0.001510
    22  C   -0.114606   0.000000   0.000171   0.000107   0.002199  -0.010754
    23  H    0.004341  -0.000000  -0.000001  -0.000051  -0.000443  -0.030442
    24  H    0.001788   0.000000   0.000031  -0.000016  -0.000079   0.010891
    25  H    0.009227   0.000000   0.000025  -0.000002  -0.000115  -0.001277
    26  C    0.000911   0.000006  -0.029013  -0.008555   0.000729   0.190000
    27  H   -0.000157  -0.000000   0.001676   0.000879   0.000127  -0.040563
    28  H   -0.000036  -0.000000  -0.002745   0.000511   0.000392  -0.036492
    29  H    0.000021   0.000000   0.002421   0.001512  -0.000461  -0.051446
               7          8          9         10         11         12
     1  O   -0.000217  -0.000284  -0.017140   0.004352   0.013666  -0.234970
     2  O   -0.014395   0.649956   0.020257   0.000038  -0.000207  -0.002956
     3  N    0.364831   0.004349   0.017859   0.002992  -0.001392  -0.098723
     4  H   -0.043582  -0.000939   0.000274   0.000030   0.000001   0.016719
     5  C    0.368299  -0.431302  -0.600785  -0.029581  -0.117969   0.176855
     6  C   -0.131544   0.043667  -0.099403  -0.008753   0.022912  -0.161071
     7  C    5.459481  -0.241560  -0.206808  -0.005714   0.016408   0.034340
     8  C   -0.241560   5.651424   0.158501  -0.000888  -0.004948  -0.068247
     9  C   -0.206808   0.158501   6.406061   0.396182   0.542827  -0.091006
    10  H   -0.005714  -0.000888   0.396182   0.549860  -0.037074  -0.019231
    11  H    0.016408  -0.004948   0.542827  -0.037074   0.503752  -0.103200
    12  C    0.034340  -0.068247  -0.091006  -0.019231  -0.103200   7.410584
    13  C    0.020867  -0.009444  -0.247256  -0.004619  -0.000027  -0.446465
    14  C    0.220697  -0.077776   0.017442  -0.001331   0.000388   0.001948
    15  H   -0.060903   0.006420  -0.001033   0.000131  -0.000006  -0.000741
    16  H   -0.016724   0.005219  -0.000299  -0.000040   0.000051  -0.000132
    17  H   -0.045707  -0.020323   0.001371   0.000097  -0.000061  -0.000260
    18  C    0.015872   0.312742  -0.006589  -0.009774  -0.001840   0.007909
    19  H    0.000181  -0.042397  -0.001787   0.000304   0.000536  -0.000217
    20  H   -0.000964  -0.007986  -0.002205   0.000431  -0.000473  -0.001740
    21  H    0.004210  -0.116268  -0.015390   0.000116  -0.006694   0.006074
    22  C    0.000570  -0.000036   0.009218   0.001515   0.000559  -0.276171
    23  H    0.000003  -0.000003   0.002759  -0.000141  -0.000027   0.057813
    24  H   -0.000022   0.000003  -0.002184   0.000161  -0.000114  -0.005854
    25  H    0.000013   0.000001  -0.000050  -0.000051  -0.000098   0.026570
    26  C    0.003422   0.000716   0.020465  -0.000495   0.000040  -0.080686
    27  H   -0.000724  -0.000003  -0.000932  -0.000050   0.000006  -0.004345
    28  H   -0.001123  -0.000014  -0.000187  -0.000021   0.000053  -0.019244
    29  H    0.003452   0.000007  -0.000587   0.000062  -0.000007   0.023524
              13         14         15         16         17         18
     1  O    0.725395  -0.000011   0.000000  -0.000000   0.000000  -0.000252
     2  O   -0.000014  -0.055783   0.004811   0.000926   0.020097  -0.099229
     3  N    0.000263  -0.046891   0.004169  -0.003569   0.003700  -0.000326
     4  H    0.000451  -0.000532  -0.000036   0.000533   0.000711   0.000018
     5  C    0.068397  -0.019750   0.006672  -0.012929   0.004525  -0.172482
     6  C    0.143110  -0.004467   0.004748  -0.000259  -0.000435  -0.001645
     7  C    0.020867   0.220697  -0.060903  -0.016724  -0.045707   0.015872
     8  C   -0.009444  -0.077776   0.006420   0.005219  -0.020323   0.312742
     9  C   -0.247256   0.017442  -0.001033  -0.000299   0.001371  -0.006589
    10  H   -0.004619  -0.001331   0.000131  -0.000040   0.000097  -0.009774
    11  H   -0.000027   0.000388  -0.000006   0.000051  -0.000061  -0.001840
    12  C   -0.446465   0.001948  -0.000741  -0.000132  -0.000260   0.007909
    13  C    5.496242  -0.000033  -0.000018  -0.000026   0.000002   0.000925
    14  C   -0.000033   5.242572   0.384113   0.397612   0.421168  -0.000547
    15  H   -0.000018   0.384113   0.564788  -0.028498  -0.025382   0.000168
    16  H   -0.000026   0.397612  -0.028498   0.504281  -0.019577   0.000023
    17  H    0.000002   0.421168  -0.025382  -0.019577   0.476497   0.000695
    18  C    0.000925  -0.000547   0.000168   0.000023   0.000695   5.223208
    19  H   -0.000015   0.000002  -0.000001  -0.000012   0.000088   0.405004
    20  H   -0.000075  -0.000276  -0.000005   0.000015   0.000020   0.392828
    21  H    0.001442   0.000354  -0.000022  -0.000002  -0.000120   0.400912
    22  C    0.308082   0.000003   0.000002  -0.000002   0.000000   0.000019
    23  H   -0.081847   0.000001  -0.000000   0.000000   0.000000   0.000002
    24  H   -0.030215  -0.000001   0.000000   0.000000  -0.000000  -0.000001
    25  H   -0.046032   0.000001   0.000000  -0.000000  -0.000000  -0.000000
    26  C   -0.055403   0.000706  -0.000252  -0.000053   0.000023  -0.000010
    27  H   -0.006862   0.000073  -0.000012   0.000004  -0.000002   0.000000
    28  H    0.006485  -0.000060   0.000013  -0.000017   0.000002  -0.000001
    29  H   -0.000256  -0.000021   0.000071   0.000004   0.000001   0.000000
              19         20         21         22         23         24
     1  O   -0.000002   0.000016   0.000413  -0.114606   0.004341   0.001788
     2  O    0.004304  -0.000806   0.006508   0.000000  -0.000000   0.000000
     3  N    0.000007   0.000013   0.000105   0.000171  -0.000001   0.000031
     4  H   -0.000001  -0.000001   0.000000   0.000107  -0.000051  -0.000016
     5  C    0.013923  -0.012412   0.071784   0.002199  -0.000443  -0.000079
     6  C    0.000033   0.000169  -0.001510  -0.010754  -0.030442   0.010891
     7  C    0.000181  -0.000964   0.004210   0.000570   0.000003  -0.000022
     8  C   -0.042397  -0.007986  -0.116268  -0.000036  -0.000003   0.000003
     9  C   -0.001787  -0.002205  -0.015390   0.009218   0.002759  -0.002184
    10  H    0.000304   0.000431   0.000116   0.001515  -0.000141   0.000161
    11  H    0.000536  -0.000473  -0.006694   0.000559  -0.000027  -0.000114
    12  C   -0.000217  -0.001740   0.006074  -0.276171   0.057813  -0.005854
    13  C   -0.000015  -0.000075   0.001442   0.308082  -0.081847  -0.030215
    14  C    0.000002  -0.000276   0.000354   0.000003   0.000001  -0.000001
    15  H   -0.000001  -0.000005  -0.000022   0.000002  -0.000000   0.000000
    16  H   -0.000012   0.000015  -0.000002  -0.000002   0.000000   0.000000
    17  H    0.000088   0.000020  -0.000120   0.000000   0.000000  -0.000000
    18  C    0.405004   0.392828   0.400912   0.000019   0.000002  -0.000001
    19  H    0.505802  -0.013756  -0.028444  -0.000000   0.000000   0.000000
    20  H   -0.013756   0.492317  -0.019938  -0.000003  -0.000000   0.000000
    21  H   -0.028444  -0.019938   0.541863   0.000035  -0.000000  -0.000001
    22  C   -0.000000  -0.000003   0.000035   5.426612   0.392108   0.403687
    23  H    0.000000  -0.000000  -0.000000   0.392108   0.540545  -0.027946
    24  H    0.000000   0.000000  -0.000001   0.403687  -0.027946   0.493662
    25  H   -0.000000  -0.000000  -0.000001   0.382555  -0.021283  -0.008016
    26  C    0.000000   0.000002  -0.000014  -0.034188   0.018415  -0.015693
    27  H   -0.000000   0.000000  -0.000000   0.011165  -0.009486  -0.001178
    28  H    0.000000  -0.000000  -0.000000  -0.012515  -0.001791   0.001409
    29  H    0.000000  -0.000000   0.000000   0.001809   0.000732   0.000191
              25         26         27         28         29
     1  O    0.009227   0.000911  -0.000157  -0.000036   0.000021
     2  O    0.000000   0.000006  -0.000000  -0.000000   0.000000
     3  N    0.000025  -0.029013   0.001676  -0.002745   0.002421
     4  H   -0.000002  -0.008555   0.000879   0.000511   0.001512
     5  C   -0.000115   0.000729   0.000127   0.000392  -0.000461
     6  C   -0.001277   0.190000  -0.040563  -0.036492  -0.051446
     7  C    0.000013   0.003422  -0.000724  -0.001123   0.003452
     8  C    0.000001   0.000716  -0.000003  -0.000014   0.000007
     9  C   -0.000050   0.020465  -0.000932  -0.000187  -0.000587
    10  H   -0.000051  -0.000495  -0.000050  -0.000021   0.000062
    11  H   -0.000098   0.000040   0.000006   0.000053  -0.000007
    12  C    0.026570  -0.080686  -0.004345  -0.019244   0.023524
    13  C   -0.046032  -0.055403  -0.006862   0.006485  -0.000256
    14  C    0.000001   0.000706   0.000073  -0.000060  -0.000021
    15  H    0.000000  -0.000252  -0.000012   0.000013   0.000071
    16  H   -0.000000  -0.000053   0.000004  -0.000017   0.000004
    17  H   -0.000000   0.000023  -0.000002   0.000002   0.000001
    18  C   -0.000000  -0.000010   0.000000  -0.000001   0.000000
    19  H   -0.000000   0.000000  -0.000000   0.000000   0.000000
    20  H   -0.000000   0.000002   0.000000  -0.000000  -0.000000
    21  H   -0.000001  -0.000014  -0.000000  -0.000000   0.000000
    22  C    0.382555  -0.034188   0.011165  -0.012515   0.001809
    23  H   -0.021283   0.018415  -0.009486  -0.001791   0.000732
    24  H   -0.008016  -0.015693  -0.001178   0.001409   0.000191
    25  H    0.499146   0.001879   0.000786   0.000109  -0.000047
    26  C    0.001879   5.250151   0.418803   0.434322   0.389222
    27  H    0.000786   0.418803   0.511265  -0.026855  -0.025408
    28  H    0.000109   0.434322  -0.026855   0.474186  -0.016291
    29  H   -0.000047   0.389222  -0.025408  -0.016291   0.516283
 Mulliken charges:
               1
     1  O   -0.378422
     2  O   -0.417189
     3  N   -0.218684
     4  H    0.292703
     5  C   -0.112387
     6  C    0.284501
     7  C    0.257339
     8  C    0.189413
     9  C   -0.299574
    10  H    0.161492
    11  H    0.172939
    12  C   -0.147078
    13  C    0.156944
    14  C   -0.479598
    15  H    0.140802
    16  H    0.173470
    17  H    0.182869
    18  C   -0.467630
    19  H    0.156449
    20  H    0.174827
    21  H    0.154589
    22  C   -0.492142
    23  H    0.156743
    24  H    0.179496
    25  H    0.156662
    26  C   -0.505450
    27  H    0.171794
    28  H    0.199909
    29  H    0.155212
 Sum of Mulliken charges =  -0.00000
 Mulliken charges with hydrogens summed into heavy atoms:
               1
     1  O   -0.378422
     2  O   -0.417189
     3  N    0.074019
     5  C   -0.112387
     6  C    0.284501
     7  C    0.257339
     8  C    0.189413
     9  C    0.034857
    12  C   -0.147078
    13  C    0.156944
    14  C    0.017542
    18  C    0.018235
    22  C    0.000759
    26  C    0.021464
 Electronic spatial extent (au):  <R**2>=           3212.7059
 Charge=              0.0000 electrons
 Dipole moment (field-independent basis, Debye):
    X=             -4.4337    Y=              7.6735    Z=             -0.2913  Tot=              8.8670
 Quadrupole moment (field-independent basis, Debye-Ang):
   XX=            -99.4669   YY=            -78.2918   ZZ=            -84.5794
   XY=            -13.4633   XZ=             -3.9086   YZ=             -1.1100
 Traceless Quadrupole moment (field-independent basis, Debye-Ang):
   XX=            -12.0209   YY=              9.1542   ZZ=              2.8666
   XY=            -13.4633   XZ=             -3.9086   YZ=             -1.1100
 Octapole moment (field-independent basis, Debye-Ang**2):
  XXX=           -119.1758  YYY=             65.9622  ZZZ=              2.0987  XYY=             37.5986
  XXY=             30.0658  XXZ=             -9.2446  XZZ=             -2.0416  YZZ=             -0.8014
  YYZ=              2.2297  XYZ=              3.1572
 Hexadecapole moment (field-independent basis, Debye-Ang**3):
 XXXX=          -3126.2364 YYYY=          -1272.4576 ZZZZ=           -139.0035 XXXY=            -45.3004
 XXXZ=            -52.4593 YYYX=            -95.1223 YYYZ=            -17.0054 ZZZX=              3.6306
 ZZZY=              3.3291 XXYY=           -689.0927 XXZZ=           -488.0363 YYZZ=           -236.1227
 XXYZ=             -2.2806 YYXZ=             -4.0287 ZZXY=             -1.2173
 N-N= 8.996614504571D+02 E-N=-3.275326402937D+03  KE= 6.306687884805D+02
 Leave Link  601 at Sat Jan 24 16:10:44 2026, MaxMem=  2147483648 cpu:               0.7 elap:               0.1
 (Enter /data/home/wyx/g16/l9999.exe)
 Electronic transition elements 
                 1             2             3             4             5 
      1  -0.633201D+03 -0.633188D+03 -0.633169D+03 -0.633137D+03 -0.633122D+03
      2   0.142072D+01 -0.247003D+00  0.293162D-01  0.464015D+00 -0.270934D+00
      3   0.455914D+00 -0.662652D-01 -0.845601D-01 -0.123232D+01  0.142229D+01
      4   0.303974D+00 -0.956976D-01 -0.322103D-01  0.246007D-01 -0.419885D-01
      5  -0.169580D+00  0.336108D-01 -0.360085D-02 -0.776799D-01  0.541989D-01
      6  -0.559870D-01  0.958997D-02  0.124346D-01  0.218781D+00 -0.283032D+00
      7  -0.366538D-01  0.112335D-01  0.147774D-02 -0.652295D-02  0.845426D-02
      8  -0.391717D+00 -0.693426D+00  0.319534D+00 -0.997937D-01  0.267854D+00
      9   0.180973D-01 -0.237910D-01 -0.880072D+00  0.455769D-01 -0.378348D-01
     10   0.135490D+01 -0.566910D+00  0.154881D+00  0.261844D+00 -0.208968D+00
     11  -0.101058D+00  0.272640D-01 -0.472187D-01 -0.107597D+01  0.677461D+00
     12   0.249178D+00 -0.781079D-01  0.216928D-01  0.181454D+00 -0.264392D+00
     13   0.378592D-02 -0.308582D-02  0.596678D-02 -0.507119D-01 -0.326175D-03
     14   0.483094D+00 -0.820701D-01  0.128310D-01 -0.308766D+00  0.373333D+00
     15   0.151431D-01 -0.154898D-01  0.577927D-01 -0.268501D+00  0.177448D+00
     16   0.112437D+00 -0.751350D-01  0.193819D-01 -0.543827D-01  0.154905D+00
                 6 
      1  -0.633099D+03
      2   0.342049D-02
      3   0.142013D+00
      4  -0.691617D-01
      5  -0.657098D-02
      6  -0.289504D-01
      7   0.340487D-01
      8  -0.185321D-01
      9  -0.132587D-01
     10   0.127201D-02
     11  -0.167030D+00
     12  -0.141143D+00
     13   0.130485D+00
     14   0.227945D-01
     15  -0.443570D-01
     16  -0.697066D-01
 1\1\GINC-CN015\SP\RCAM-B3LYP TD-FC\TZVP\C11H15N1O2\WYX\24-Jan-2026\0\\
 #p CAM-B3LYP TZVP em=gd3bj td(nstates=6,root=1) scrf=(Solvent=Water)\\
 Title Card Required\\0,1\O,0,2.757988,-1.556846,0.697942\O,0,-3.318432
 ,-1.658458,-0.919099\N,0,-0.679008,1.522195,0.015791\H,0,-0.986691,2.4
 77782,-0.059774\C,0,-1.240545,-0.764858,-0.163619\C,0,0.656772,1.30927
 1,0.210153\C,0,-1.609855,0.53875,-0.261129\C,0,-2.152406,-1.82488,-0.4
 6128\C,0,0.142357,-1.120184,0.325722\H,0,0.091423,-1.527928,1.342268\H
 ,0,0.559703,-1.919262,-0.286436\C,0,1.115198,0.035804,0.310449\C,0,2.5
 026,-0.374418,0.469468\C,0,-2.942056,1.071888,-0.644132\H,0,-3.214333,
 1.94351,-0.043202\H,0,-2.966862,1.376836,-1.692792\H,0,-3.752151,0.356
 231,-0.520849\C,0,-1.793861,-3.260932,-0.229849\H,0,-2.638627,-3.87561
 9,0.084155\H,0,-1.403977,-3.715366,-1.145791\H,0,-1.022193,-3.401523,0
 .52573\C,0,3.66484,0.57792,0.336114\H,0,3.560651,1.264677,-0.499761\H,
 0,3.784878,1.168252,1.245542\H,0,4.561771,-0.021814,0.202152\C,0,1.435
 664,2.587414,0.279899\H,0,2.192886,2.568609,1.055322\H,0,1.924335,2.80
 1646,-0.670939\H,0,0.769929,3.421304,0.497944\\Version=ES64L-G16RevA.0
 3\State=1-A\HF=-633.3252422\RMSD=6.297e-09\PG=C01 [X(C11H15N1O2)]\\@


 A SLIP OF THE FOOT YOU MAY SOON RECOVER, BUT A SLIP OF THE TONGUE
 YOU MAY NEVER GET OVER. -- BEN FRANKLIN
 Job cpu time:       0 days  0 hours 53 minutes 17.6 seconds.
 Elapsed time:       0 days  0 hours  3 minutes 21.2 seconds.
 File lengths (MBytes):  RWF=    835 Int=      0 D2E=      0 Chk=     34 Scr=      1
 Normal termination of Gaussian 16 at Sat Jan 24 16:10:47 2026.
