 Entering Gaussian System, Link 0=g16
 Input=DDL-S2-cLR-gs-6.gjf
 Output=DDL-S2-cLR-gs-6.log
 Initial command:
 /data/home/wyx/g16/l1.exe "/scr/tmp/wyx/13119/Gau-1529003.inp" -scrdir="/scr/tmp/wyx/13119/"
 Entering Link 1 = /data/home/wyx/g16/l1.exe PID=   1529004.
  
 Copyright (c) 1988,1990,1992,1993,1995,1998,2003,2009,2016,
            Gaussian, Inc.  All Rights Reserved.
  
 This is part of the Gaussian(R) 16 program.  It is based on
 the Gaussian(R) 09 system (copyright 2009, Gaussian, Inc.),
 the Gaussian(R) 03 system (copyright 2003, Gaussian, Inc.),
 the Gaussian(R) 98 system (copyright 1998, Gaussian, Inc.),
 the Gaussian(R) 94 system (copyright 1995, Gaussian, Inc.),
 the Gaussian 92(TM) system (copyright 1992, Gaussian, Inc.),
 the Gaussian 90(TM) system (copyright 1990, Gaussian, Inc.),
 the Gaussian 88(TM) system (copyright 1988, Gaussian, Inc.),
 the Gaussian 86(TM) system (copyright 1986, Carnegie Mellon
 University), and the Gaussian 82(TM) system (copyright 1983,
 Carnegie Mellon University). Gaussian is a federally registered
 trademark of Gaussian, Inc.
  
 This software contains proprietary and confidential information,
 including trade secrets, belonging to Gaussian, Inc.
  
 This software is provided under written license and may be
 used, copied, transmitted, or stored only in accord with that
 written license.
  
 The following legend is applicable only to US Government
 contracts under FAR:
  
                    RESTRICTED RIGHTS LEGEND
  
 Use, reproduction and disclosure by the US Government is
 subject to restrictions as set forth in subparagraphs (a)
 and (c) of the Commercial Computer Software - Restricted
 Rights clause in FAR 52.227-19.
  
 Gaussian, Inc.
 340 Quinnipiac St., Bldg. 40, Wallingford CT 06492
  
  
 ---------------------------------------------------------------
 Warning -- This program may not be used in any manner that
 competes with the business of Gaussian, Inc. or will provide
 assistance to any competitor of Gaussian, Inc.  The licensee
 of this program is prohibited from giving any competitor of
 Gaussian, Inc. access to this program.  By using this program,
 the user acknowledges that Gaussian, Inc. is engaged in the
 business of creating and licensing software in the field of
 computational chemistry and represents and warrants to the
 licensee that it is not a competitor of Gaussian, Inc. and that
 it will not use this program in any manner prohibited above.
 ---------------------------------------------------------------
  

 Cite this work as:
 Gaussian 16, Revision A.03,
 M. J. Frisch, G. W. Trucks, H. B. Schlegel, G. E. Scuseria, 
 M. A. Robb, J. R. Cheeseman, G. Scalmani, V. Barone, 
 G. A. Petersson, H. Nakatsuji, X. Li, M. Caricato, A. V. Marenich, 
 J. Bloino, B. G. Janesko, R. Gomperts, B. Mennucci, H. P. Hratchian, 
 J. V. Ortiz, A. F. Izmaylov, J. L. Sonnenberg, D. Williams-Young, 
 F. Ding, F. Lipparini, F. Egidi, J. Goings, B. Peng, A. Petrone, 
 T. Henderson, D. Ranasinghe, V. G. Zakrzewski, J. Gao, N. Rega, 
 G. Zheng, W. Liang, M. Hada, M. Ehara, K. Toyota, R. Fukuda, 
 J. Hasegawa, M. Ishida, T. Nakajima, Y. Honda, O. Kitao, H. Nakai, 
 T. Vreven, K. Throssell, J. A. Montgomery, Jr., J. E. Peralta, 
 F. Ogliaro, M. J. Bearpark, J. J. Heyd, E. N. Brothers, K. N. Kudin, 
 V. N. Staroverov, T. A. Keith, R. Kobayashi, J. Normand, 
 K. Raghavachari, A. P. Rendell, J. C. Burant, S. S. Iyengar, 
 J. Tomasi, M. Cossi, J. M. Millam, M. Klene, C. Adamo, R. Cammi, 
 J. W. Ochterski, R. L. Martin, K. Morokuma, O. Farkas, 
 J. B. Foresman, and D. J. Fox, Gaussian, Inc., Wallingford CT, 2016.
 
 ******************************************
 Gaussian 16:  ES64L-G16RevA.03 25-Dec-2016
                24-Jan-2026 
 ******************************************
 %nprocshared=16
 Will use up to   16 processors via shared memory.
 %mem=16GB
 %oldchk=DDL-S2-cLR-6.chk
 %chk=DDL-S2-cLR-gs-6.chk
 Copying data from "DDL-S2-cLR-6.chk" to current chk file "DDL-S2-cLR-gs-6.chk"
 IOpt=  2 FromEx=T IUOpen= 4 IOptOp= 5 NList=   0 IFRang= 0 IUIn= 4 IUOut= 2.
 ----------------------------------------------------------------------
 #p CAM-B3LYP TZVP em=gd3bj scrf=(Solvent=Water,NonEquilibrium=Read) Ge
 om=Check Guess=Read
 ----------------------------------------------------------------------
 1/29=2,38=1,172=1/1;
 2/12=2,40=1/2;
 3/5=19,7=101,11=2,14=-4,25=1,30=1,70=6002201,72=1,74=-40,116=-2,124=41/1,2,3;
 4/5=1/1;
 5/5=2,38=6,53=1/2;
 6/7=2,8=2,9=2,10=2,28=1/1;
 99/5=1,9=1/99;
 Leave Link    1 at Sat Jan 24 23:27:35 2026, MaxMem=  2147483648 cpu:               0.8 elap:               0.1
 (Enter /data/home/wyx/g16/l101.exe)
 -------------------
 Title Card Required
 -------------------
 Structure from the checkpoint file:  "DDL-S2-cLR-gs-6.chk"
 Charge =  0 Multiplicity = 1
 Z-Matrix found in chk file.
 O,0,2.760405,-1.555555,0.689751
 O,0,-3.339402,-1.661837,-0.863072
 N,0,-0.671754,1.523624,-0.014867
 H,0,-0.980603,2.478498,-0.094279
 C,0,-1.239227,-0.767642,-0.166759
 C,0,0.660059,1.311921,0.19056
 C,0,-1.608605,0.53769,-0.271327
 C,0,-2.150677,-1.825896,-0.437212
 C,0,0.153319,-1.123275,0.295133
 H,0,0.11793,-1.556706,1.301188
 H,0,0.567617,-1.904442,-0.342689
 C,0,1.120531,0.037935,0.297356
 C,0,2.505018,-0.369993,0.473265
 C,0,-2.94411,1.070901,-0.63966
 H,0,-3.25122,1.883088,0.025267
 H,0,-2.955389,1.461451,-1.660282
 H,0,-3.739176,0.329041,-0.593283
 C,0,-1.806385,-3.268498,-0.224969
 H,0,-2.618101,-3.849245,0.216945
 H,0,-1.559398,-3.75311,-1.174406
 H,0,-0.943859,-3.41376,0.422595
 C,0,3.667745,0.586662,0.375697
 H,0,3.586679,1.271735,-0.464221
 H,0,3.757683,1.179408,1.286921
 H,0,4.570556,-0.009722,0.269314
 C,0,1.43952,2.58994,0.264299
 H,0,2.172341,2.580919,1.063334
 H,0,1.958935,2.788452,-0.673345
 H,0,0.769569,3.428417,0.448744
 Recover connectivity data from disk.
 ITRead=  0  0  0  0  0  0  0  0  0  0  0  0  0  0  0  0  0  0  0  0
 ITRead=  0  0  0  0  0  0  0  0  0
 MicOpt= -1 -1 -1 -1 -1 -1 -1 -1 -1 -1 -1 -1 -1 -1 -1 -1 -1 -1 -1 -1
 MicOpt= -1 -1 -1 -1 -1 -1 -1 -1 -1
 NAtoms=     29 NQM=       29 NQMF=       0 NMMI=      0 NMMIF=      0
                NMic=       0 NMicF=      0.
                    Isotopes and Nuclear Properties:
 (Nuclear quadrupole moments (NQMom) in fm**2, nuclear magnetic moments (NMagM)
  in nuclear magnetons)

  Atom         1           2           3           4           5           6           7           8           9          10
 IAtWgt=          16          16          14           1          12          12          12          12          12           1
 AtmWgt=  15.9949146  15.9949146  14.0030740   1.0078250  12.0000000  12.0000000  12.0000000  12.0000000  12.0000000   1.0078250
 NucSpn=           0           0           2           1           0           0           0           0           0           1
 AtZEff=   5.6000000   5.6000000   4.5500000   1.0000000   3.6000000   3.6000000   3.6000000   3.6000000   3.6000000   1.0000000
 NQMom=    0.0000000   0.0000000   2.0440000   0.0000000   0.0000000   0.0000000   0.0000000   0.0000000   0.0000000   0.0000000
 NMagM=    0.0000000   0.0000000   0.4037610   2.7928460   0.0000000   0.0000000   0.0000000   0.0000000   0.0000000   2.7928460
 AtZNuc=   8.0000000   8.0000000   7.0000000   1.0000000   6.0000000   6.0000000   6.0000000   6.0000000   6.0000000   1.0000000

  Atom        11          12          13          14          15          16          17          18          19          20
 IAtWgt=           1          12          12          12           1           1           1          12           1           1
 AtmWgt=   1.0078250  12.0000000  12.0000000  12.0000000   1.0078250   1.0078250   1.0078250  12.0000000   1.0078250   1.0078250
 NucSpn=           1           0           0           0           1           1           1           0           1           1
 AtZEff=   1.0000000   3.6000000   3.6000000   3.6000000   1.0000000   1.0000000   1.0000000   3.6000000   1.0000000   1.0000000
 NQMom=    0.0000000   0.0000000   0.0000000   0.0000000   0.0000000   0.0000000   0.0000000   0.0000000   0.0000000   0.0000000
 NMagM=    2.7928460   0.0000000   0.0000000   0.0000000   2.7928460   2.7928460   2.7928460   0.0000000   2.7928460   2.7928460
 AtZNuc=   1.0000000   6.0000000   6.0000000   6.0000000   1.0000000   1.0000000   1.0000000   6.0000000   1.0000000   1.0000000

  Atom        21          22          23          24          25          26          27          28          29
 IAtWgt=           1          12           1           1           1          12           1           1           1
 AtmWgt=   1.0078250  12.0000000   1.0078250   1.0078250   1.0078250  12.0000000   1.0078250   1.0078250   1.0078250
 NucSpn=           1           0           1           1           1           0           1           1           1
 AtZEff=   1.0000000   3.6000000   1.0000000   1.0000000   1.0000000   3.6000000   1.0000000   1.0000000   1.0000000
 NQMom=    0.0000000   0.0000000   0.0000000   0.0000000   0.0000000   0.0000000   0.0000000   0.0000000   0.0000000
 NMagM=    2.7928460   0.0000000   2.7928460   2.7928460   2.7928460   0.0000000   2.7928460   2.7928460   2.7928460
 AtZNuc=   1.0000000   6.0000000   1.0000000   1.0000000   1.0000000   6.0000000   1.0000000   1.0000000   1.0000000
 Leave Link  101 at Sat Jan 24 23:27:38 2026, MaxMem=  2147483648 cpu:               0.9 elap:               0.1
 (Enter /data/home/wyx/g16/l202.exe)
                          Input orientation:                          
 ---------------------------------------------------------------------
 Center     Atomic      Atomic             Coordinates (Angstroms)
 Number     Number       Type             X           Y           Z
 ---------------------------------------------------------------------
      1          8           0        2.760405   -1.555555    0.689751
      2          8           0       -3.339402   -1.661837   -0.863072
      3          7           0       -0.671754    1.523624   -0.014867
      4          1           0       -0.980603    2.478498   -0.094279
      5          6           0       -1.239227   -0.767642   -0.166759
      6          6           0        0.660059    1.311921    0.190560
      7          6           0       -1.608605    0.537690   -0.271327
      8          6           0       -2.150677   -1.825896   -0.437212
      9          6           0        0.153319   -1.123275    0.295133
     10          1           0        0.117930   -1.556706    1.301188
     11          1           0        0.567617   -1.904442   -0.342689
     12          6           0        1.120531    0.037935    0.297356
     13          6           0        2.505018   -0.369993    0.473265
     14          6           0       -2.944110    1.070901   -0.639660
     15          1           0       -3.251220    1.883088    0.025267
     16          1           0       -2.955389    1.461451   -1.660282
     17          1           0       -3.739176    0.329041   -0.593283
     18          6           0       -1.806385   -3.268498   -0.224969
     19          1           0       -2.618101   -3.849245    0.216945
     20          1           0       -1.559398   -3.753110   -1.174406
     21          1           0       -0.943859   -3.413760    0.422595
     22          6           0        3.667745    0.586662    0.375697
     23          1           0        3.586679    1.271735   -0.464221
     24          1           0        3.757683    1.179408    1.286921
     25          1           0        4.570556   -0.009722    0.269314
     26          6           0        1.439520    2.589940    0.264299
     27          1           0        2.172341    2.580919    1.063334
     28          1           0        1.958935    2.788452   -0.673345
     29          1           0        0.769569    3.428417    0.448744
 ---------------------------------------------------------------------
                    Distance matrix (angstroms):
                    1          2          3          4          5
     1  O    0.000000
     2  O    6.295252   0.000000
     3  N    4.664498   4.240632   0.000000
     4  H    5.557286   4.826733   1.006717   0.000000
     5  C    4.165510   2.386456   2.365375   3.257233   0.000000
     6  C    3.589298   5.094023   1.364091   2.033177   2.838934
     7  C    4.938987   2.860724   1.384026   2.047552   1.360612
     8  C    5.045974   1.273318   3.685766   4.473755   1.422599
     9  C    2.671982   3.718950   2.789788   3.796076   1.509637
    10  H    2.712293   4.080223   3.441516   4.408738   2.149271
    11  H    2.448668   3.948981   3.659938   4.654982   2.141950
    12  C    2.319994   4.911906   2.348838   3.244147   2.536299
    13  C    1.231928   6.132854   3.730407   4.537131   3.819310
    14  C    6.419275   2.770203   2.399776   2.476717   2.551568
    15  H    6.957402   3.655601   2.604702   2.350427   3.333371
    16  H    6.877156   3.246219   2.815359   2.717817   3.185071
    17  H    6.887847   2.048463   3.342255   3.532548   2.763038
    18  C    4.962505   2.310558   4.929094   5.807492   2.565022
    19  H    5.866250   2.543908   5.719242   6.543592   3.397764
    20  H    5.192786   2.763832   5.475068   6.350954   3.167157
    21  H    4.152815   3.234316   4.964189   5.914999   2.726999
    22  C    2.347550   7.462600   4.456646   5.040542   5.119255
    23  H    3.163534   7.532299   4.289478   4.738481   5.247562
    24  H    2.971733   7.941269   4.629584   5.103597   5.556375
    25  H    2.417233   8.159609   5.469344   6.094162   5.875218
    26  C    4.371599   6.495127   2.381689   2.449080   4.316811
    27  H    4.194735   7.217432   3.220135   3.360300   4.936070
    28  H    4.622854   6.921954   2.992308   3.012021   4.809436
    29  H    5.372289   6.671970   2.433225   2.064055   4.692656
                    6          7          8          9         10
     6  C    0.000000
     7  C    2.441231   0.000000
     8  C    4.259135   2.430617   0.000000
     9  C    2.489558   2.486777   2.517619   0.000000
    10  H    3.123527   3.136913   2.870727   1.096021   0.000000
    11  H    3.261578   3.271856   2.721071   1.090267   1.739388
    12  C    1.358853   2.832197   3.835917   1.511262   2.134424
    13  C    2.512495   4.277873   4.962269   2.475814   2.791403
    14  C    3.706399   1.484438   3.010308   3.909260   4.477421
    15  H    3.956218   2.143886   3.896363   4.549938   4.981097
    16  H    4.064411   2.143912   3.598626   4.490938   5.227319
    17  H    4.575339   2.164838   2.681686   4.248532   4.692795
    18  C    5.218836   3.811605   1.498227   2.951767   2.993723
    19  H    6.114300   4.527990   2.177234   3.888161   3.730574
    20  H    5.695934   4.385081   2.146443   3.465397   3.710281
    21  H    4.995844   4.066617   2.171863   2.542905   2.312568
    22  C    3.099428   5.316099   6.351007   3.909164   4.248735
    23  H    2.999243   5.250429   6.520222   4.254486   4.811337
    24  H    3.288593   5.624676   6.849321   4.390607   4.553496
    25  H    4.128550   6.226876   6.998045   4.555508   4.825329
    26  C    1.498776   3.713447   5.734217   3.929787   4.473970
    27  H    2.158492   4.500184   6.352963   4.288081   4.625702
    28  H    2.147919   4.237321   6.183597   4.415859   5.115513
    29  H    2.134996   3.811891   6.076229   4.595787   5.099289
                   11         12         13         14         15
    11  H    0.000000
    12  C    2.118537   0.000000
    13  C    2.602660   1.454013   0.000000
    14  C    4.612275   4.297246   5.745239   0.000000
    15  H    5.391131   4.752981   6.197689   1.093660   0.000000
    16  H    5.047461   4.740450   6.141845   1.092852   1.762489
    17  H    4.857953   4.949215   6.373079   1.088410   1.742345
    18  C    2.740509   4.446590   5.241856   4.505194   5.356212
    19  H    3.774155   5.393886   6.198164   5.004787   5.770374
    20  H    2.938285   4.870331   5.538933   5.047223   6.005681
    21  H    2.268978   4.023877   4.600200   5.024099   5.791233
    22  C    4.041345   2.606825   1.508855   6.706867   7.048092
    23  H    4.383789   2.860795   2.178105   6.536231   6.882602
    24  H    4.726762   3.039206   2.152173   6.974060   7.156232
    25  H    4.470798   3.450468   2.106618   7.646188   8.051240
    26  C    4.618238   2.572076   3.152801   4.726609   4.749718
    27  H    4.966941   2.856535   3.027662   5.599858   5.565929
    28  H    4.905951   3.034885   3.404217   5.195283   5.334178
    29  H    5.395047   3.411959   4.176159   4.531436   4.328293
                   16         17         18         19         20
    16  H    0.000000
    17  H    1.742171   0.000000
    18  C    5.074717   4.100442   0.000000
    19  H    5.642804   4.401290   1.091530   0.000000
    20  H    5.420010   4.664021   1.094204   1.750986   0.000000
    21  H    5.670301   4.780624   1.088297   1.742132   1.744838
    22  C    6.984008   7.474475   6.722288   7.695085   6.968462
    23  H    6.653210   7.387387   7.053800   8.073891   7.227416
    24  H    7.336954   7.775679   7.282069   8.190410   7.658930
    25  H    7.907436   8.361249   7.178392   8.149937   7.326228
    26  C    4.928765   5.715418   6.715399   7.611152   7.162239
    27  H    5.913113   6.539218   7.190665   8.062984   7.684613
    28  H    5.185128   6.206737   7.146000   8.111775   7.444579
    29  H    4.710866   5.569626   7.206809   8.030841   7.722243
                   21         22         23         24         25
    21  H    0.000000
    22  C    6.105118   0.000000
    23  H    6.577696   1.086903   0.000000
    24  H    6.629385   1.090764   1.761892   0.000000
    25  H    6.482264   1.087225   1.774322   1.763609   0.000000
    26  C    6.461421   2.998419   2.622727   2.899868   4.069601
    27  H    6.786562   2.585757   2.459215   2.127800   3.618470
    28  H    6.935036   2.977986   2.234662   3.109206   3.941947
    29  H    7.053503   4.059597   3.663453   3.832676   5.128401
                   26         27         28         29
    26  C    0.000000
    27  H    1.084235   0.000000
    28  H    1.090126   1.762006   0.000000
    29  H    1.088989   1.750355   1.755913   0.000000
 Stoichiometry    C11H15NO2
 Framework group  C1[X(C11H15NO2)]
 Deg. of freedom    81
 Full point group                 C1      NOp   1
 RotChk:  IX=0 Diff= 8.56D-16
 Largest Abelian subgroup         C1      NOp   1
 Largest concise Abelian subgroup C1      NOp   1
                         Standard orientation:                         
 ---------------------------------------------------------------------
 Center     Atomic      Atomic             Coordinates (Angstroms)
 Number     Number       Type             X           Y           Z
 ---------------------------------------------------------------------
      1          8           0       -2.265810   -2.306347   -0.109771
      2          8           0        3.657224   -0.206120    0.260248
      3          7           0       -0.056385    1.801571   -0.141315
      4          1           0       -0.091195    2.807681   -0.144369
      5          6           0        1.291425   -0.139903   -0.045994
      6          6           0       -1.245012    1.134647   -0.085435
      7          6           0        1.194471    1.217250   -0.044068
      8          6           0        2.546460   -0.799348    0.071504
      9          6           0        0.053479   -0.984738   -0.226955
     10          1           0        0.066488   -1.467177   -1.211001
     11          1           0        0.052251   -1.800808    0.496031
     12          6           0       -1.243331   -0.224147   -0.073012
     13          6           0       -2.407076   -1.090149    0.026442
     14          6           0        2.302039    2.200955    0.051702
     15          1           0        2.189051    3.007449   -0.678293
     16          1           0        2.349471    2.660283    1.042204
     17          1           0        3.285699    1.770769   -0.127156
     18          6           0        2.696129   -2.286079   -0.037645
     19          1           0        3.571825   -2.594401   -0.611695
     20          1           0        2.798596   -2.740342    0.952520
     21          1           0        1.841854   -2.770808   -0.506306
     22          6           0       -3.795834   -0.578595    0.320219
     23          1           0       -3.817447    0.164429    1.113193
     24          1           0       -4.240079   -0.133641   -0.571088
     25          1           0       -4.401974   -1.433444    0.609853
     26          6           0       -2.421634    2.061917   -0.040037
     27          1           0       -3.229570    1.735420   -0.685175
     28          1           0       -2.810482    2.154505    0.974162
     29          1           0       -2.127797    3.057966   -0.367825
 ---------------------------------------------------------------------
 Rotational constants (GHZ):           1.0975779           0.4835564           0.3411610
 Leave Link  202 at Sat Jan 24 23:27:38 2026, MaxMem=  2147483648 cpu:               0.0 elap:               0.0
 (Enter /data/home/wyx/g16/l301.exe)
 Standard basis: TZVP (5D, 7F)
 Ernie: Thresh=  0.10000D-02 Tol=  0.10000D-05 Strict=F.
 There are   370 symmetry adapted cartesian basis functions of A   symmetry.
 There are   356 symmetry adapted basis functions of A   symmetry.
   356 basis functions,   610 primitive gaussians,   370 cartesian basis functions
    52 alpha electrons       52 beta electrons
       nuclear repulsion energy       899.2630180187 Hartrees.
 IExCor=20419 DFT=T Ex+Corr=CAM-B3LYP ExCW=0 ScaHFX=  1.000000
 ScaDFX=  1.000000  1.000000  1.000000  0.810000 ScalE2=  1.000000  1.000000
 IRadAn=      5 IRanWt=     -1 IRanGd=            0 ICorTp=0 IEmpDi=141
 HFx  wShort=  0.000000 wLong=  0.330000 cFull=  0.190000 cShort=  0.000000 cLong=  0.460000
 DFx  wShort=  0.000000 wLong=  0.330000 cFull=  0.190000 cShort=  0.000000 cLong=  0.460000
 NAtoms=   29 NActive=   29 NUniq=   29 SFac= 1.00D+00 NAtFMM=   60 NAOKFM=F Big=F
 Integral buffers will be    131072 words long.
 Raffenetti 2 integral format.
 Two-electron integral symmetry is turned on.
 R6Disp:  Grimme-D3(BJ) Dispersion energy=       -0.0261042250 Hartrees.
 Nuclear repulsion after empirical dispersion term =      899.2369137937 Hartrees.
 ------------------------------------------------------------------------------
 Polarizable Continuum Model (PCM)
 =================================
 Model                : PCM.
 Atomic radii         : UFF (Universal Force Field).
 Polarization charges : Total charges.
 Charge compensation  : None.
 Solution method      : On-the-fly selection.
 Cavity type          : Scaled VdW (van der Waals Surface) (Alpha=1.100).
 Cavity algorithm     : GePol (No added spheres)
                        Default sphere list used, NSphG=   29.
                        Lebedev-Laikov grids with approx.  5.0 points / Ang**2.
                        Smoothing algorithm: York/Karplus (Gamma=1.0000).
                        Polarization charges: spherical gaussians, with
                                              point-specific exponents (IZeta= 3).
                        Self-potential: point-specific (ISelfS= 7).
                        Self-field    : sphere-specific E.n sum rule (ISelfD= 2).
 Solvent              : Water, Eps=  78.355300 Eps(inf)=   1.777849
 ------------------------------------------------------------------------------
 GePol: Number of generator spheres                  =      29
 GePol: Total number of spheres                      =      29
 GePol: Number of exposed spheres                    =      29 (100.00%)
 GePol: Number of points                             =    2105
 GePol: Average weight of points                     =       0.13
 GePol: Minimum weight of points                     =   0.11D-10
 GePol: Maximum weight of points                     =    0.20577
 GePol: Number of points with low weight             =     137
 GePol: Fraction of low-weight points (<1% of avg)   =       6.51%
 GePol: Cavity surface area                          =    269.293 Ang**2
 GePol: Cavity volume                                =    286.686 Ang**3
 Leave Link  301 at Sat Jan 24 23:27:38 2026, MaxMem=  2147483648 cpu:               0.6 elap:               0.0
 (Enter /data/home/wyx/g16/l302.exe)
 NPDir=0 NMtPBC=     1 NCelOv=     1 NCel=       1 NClECP=     1 NCelD=      1
         NCelK=      1 NCelE2=     1 NClLst=     1 CellRange=     0.0.
 One-electron integrals computed using PRISM.
 One-electron integral symmetry used in STVInt
 NBasis=   356 RedAO= T EigKep=  4.02D-05  NBF=   356
 NBsUse=   356 1.00D-06 EigRej= -1.00D+00 NBFU=   356
 Precomputing XC quadrature grid using
 IXCGrd= 4 IRadAn=           5 IRanWt=          -1 IRanGd=           0 AccXCQ= 0.00D+00.
 Generated NRdTot=       0 NPtTot=           0 NUsed=           0 NTot=          32
 NSgBfM=   366   366   366   366   366 MxSgAt=    29 MxSgA2=    29.
 Leave Link  302 at Sat Jan 24 23:27:39 2026, MaxMem=  2147483648 cpu:               3.1 elap:               0.2
 (Enter /data/home/wyx/g16/l303.exe)
 DipDrv:  MaxL=1.
 Leave Link  303 at Sat Jan 24 23:27:39 2026, MaxMem=  2147483648 cpu:               0.6 elap:               0.0
 (Enter /data/home/wyx/g16/l401.exe)
 Initial guess from the checkpoint file:  "DDL-S2-cLR-gs-6.chk"
 B after Tr=    -0.000000    0.000000   -0.000000
         Rot=    1.000000   -0.000000   -0.000000    0.000000 Ang=   0.00 deg.
 Guess basis will be translated and rotated to current coordinates.
 GSVD:  received Info=                   1 from GESDD.
 JPrj=2 DoOrth=T DoCkMO=T.
 Leave Link  401 at Sat Jan 24 23:27:39 2026, MaxMem=  2147483648 cpu:               2.7 elap:               0.2
 (Enter /data/home/wyx/g16/l502.exe)
 Integral symmetry usage will be decided dynamically.
 Closed shell SCF:
 Using DIIS extrapolation, IDIIS=  1040.
 NGot=  2147483648 LenX=  2147200095 LenY=  2147062754
 Requested convergence on RMS density matrix=1.00D-08 within 128 cycles.
 Requested convergence on MAX density matrix=1.00D-06.
 Requested convergence on             energy=1.00D-06.
 No special actions if energy rises.
 Fock matrices will be formed incrementally for  20 cycles.

 Cycle   1  Pass 1  IDiag  1:
 FoFJK:  IHMeth= 1 ICntrl=       0 DoSepK=T KAlg= 0 I1Cent=           0 FoldK=F
 IRaf=         1 NMat=       1 IRICut=       1 DoRegI=T DoRafI=F ISym2E= 0 IDoP0=0 IntGTp=1.
 FoFCou: FMM=F IPFlag=           0 FMFlag=      100000 FMFlg1=           0
         NFxFlg=           0 DoJE=T BraDBF=F KetDBF=F FulRan=T
         wScrn=  0.000000 ICntrl=       500 IOpCl=  0 I1Cent=           0 NGrid=           0
         NMat0=    1 NMatS0=      1 NMatT0=    0 NMatD0=    1 NMtDS0=    0 NMtDT0=    0
 Symmetry not used in FoFCou.
 Inv3:  Mode=1 IEnd=    13293075.
 Iteration    1 A*A^-1 deviation from unit magnitude is 3.33D-15 for    876.
 Iteration    1 A*A^-1 deviation from orthogonality  is 2.00D-15 for   2012   1601.
 Iteration    1 A^-1*A deviation from unit magnitude is 3.33D-15 for    876.
 Iteration    1 A^-1*A deviation from orthogonality  is 1.77D-15 for   1756    497.
 NEqPCM:  Using non-equilibrium solvation (IEInf=1, Eps=  78.3553, EpsInf=   1.7778)
 Inv3:  Mode=1 IEnd=    13293075.
 Iteration    1 A*A^-1 deviation from unit magnitude is 3.22D-15 for    728.
 Iteration    1 A*A^-1 deviation from orthogonality  is 1.89D-15 for   2014   1890.
 Iteration    1 A^-1*A deviation from unit magnitude is 3.22D-15 for    728.
 Iteration    1 A^-1*A deviation from orthogonality  is 1.73D-15 for   1906    321.
 E= -633.320156851342    
 DIIS: error= 8.64D-04 at cycle   1 NSaved=   1.
 NSaved= 1 IEnMin= 1 EnMin= -633.320156851342     IErMin= 1 ErrMin= 8.64D-04
 ErrMax= 8.64D-04  0.00D+00 EMaxC= 1.00D-01 BMatC= 1.35D-04 BMatP= 1.35D-04
 IDIUse=3 WtCom= 9.91D-01 WtEn= 8.64D-03
 Coeff-Com:  0.100D+01
 Coeff-En:   0.100D+01
 Coeff:      0.100D+01
 Gap=     0.233 Goal=   None    Shift=    0.000
 RMSDP=4.50D-04 MaxDP=3.74D-02              OVMax= 1.36D-02

 Cycle   2  Pass 1  IDiag  1:
 RMSU=  4.41D-04    CP:  1.01D+00
 E= -633.320378778576     Delta-E=       -0.000221927233 Rises=F Damp=F
 DIIS: error= 6.08D-04 at cycle   2 NSaved=   2.
 NSaved= 2 IEnMin= 2 EnMin= -633.320378778576     IErMin= 2 ErrMin= 6.08D-04
 ErrMax= 6.08D-04  0.00D+00 EMaxC= 1.00D-01 BMatC= 1.61D-04 BMatP= 1.35D-04
 IDIUse=3 WtCom= 2.88D-01 WtEn= 7.12D-01
 Coeff-Com:  0.531D+00 0.469D+00
 Coeff-En:   0.000D+00 0.100D+01
 Coeff:      0.153D+00 0.847D+00
 Gap=     0.231 Goal=   None    Shift=    0.000
 RMSDP=2.85D-04 MaxDP=1.84D-02 DE=-2.22D-04 OVMax= 5.75D-03

 Cycle   3  Pass 1  IDiag  1:
 RMSU=  2.49D-04    CP:  9.98D-01  8.31D-01
 E= -633.320328626032     Delta-E=        0.000050152543 Rises=F Damp=F
 DIIS: error= 8.45D-04 at cycle   3 NSaved=   3.
 NSaved= 3 IEnMin= 2 EnMin= -633.320378778576     IErMin= 2 ErrMin= 6.08D-04
 ErrMax= 8.45D-04  0.00D+00 EMaxC= 1.00D-01 BMatC= 2.59D-04 BMatP= 1.35D-04
 IDIUse=3 WtCom= 2.56D-01 WtEn= 7.44D-01
 Coeff-Com:  0.795D-01 0.528D+00 0.392D+00
 Coeff-En:   0.000D+00 0.566D+00 0.434D+00
 Coeff:      0.203D-01 0.557D+00 0.423D+00
 Gap=     0.231 Goal=   None    Shift=    0.000
 RMSDP=9.20D-05 MaxDP=7.12D-03 DE= 5.02D-05 OVMax= 3.73D-03

 Cycle   4  Pass 1  IDiag  1:
 RMSU=  2.98D-05    CP:  1.00D+00  9.06D-01  7.24D-01
 E= -633.320517835729     Delta-E=       -0.000189209697 Rises=F Damp=F
 DIIS: error= 1.05D-04 at cycle   4 NSaved=   4.
 NSaved= 4 IEnMin= 4 EnMin= -633.320517835729     IErMin= 4 ErrMin= 1.05D-04
 ErrMax= 1.05D-04  0.00D+00 EMaxC= 1.00D-01 BMatC= 1.31D-06 BMatP= 1.35D-04
 IDIUse=3 WtCom= 9.99D-01 WtEn= 1.05D-03
 Coeff-Com: -0.105D-01 0.146D+00 0.125D+00 0.740D+00
 Coeff-En:   0.000D+00 0.000D+00 0.000D+00 0.100D+01
 Coeff:     -0.105D-01 0.146D+00 0.125D+00 0.740D+00
 Gap=     0.232 Goal=   None    Shift=    0.000
 RMSDP=2.09D-05 MaxDP=1.26D-03 DE=-1.89D-04 OVMax= 1.15D-03

 Cycle   5  Pass 1  IDiag  1:
 RMSU=  1.32D-05    CP:  1.00D+00  9.10D-01  7.84D-01  1.04D+00
 E= -633.320519779303     Delta-E=       -0.000001943574 Rises=F Damp=F
 DIIS: error= 3.19D-05 at cycle   5 NSaved=   5.
 NSaved= 5 IEnMin= 5 EnMin= -633.320519779303     IErMin= 5 ErrMin= 3.19D-05
 ErrMax= 3.19D-05  0.00D+00 EMaxC= 1.00D-01 BMatC= 4.14D-07 BMatP= 1.31D-06
 IDIUse=1 WtCom= 1.00D+00 WtEn= 0.00D+00
 Coeff-Com: -0.138D-01-0.152D-01-0.182D-03 0.344D+00 0.685D+00
 Coeff:     -0.138D-01-0.152D-01-0.182D-03 0.344D+00 0.685D+00
 Gap=     0.232 Goal=   None    Shift=    0.000
 RMSDP=1.10D-05 MaxDP=5.49D-04 DE=-1.94D-06 OVMax= 4.71D-04

 Cycle   6  Pass 1  IDiag  1:
 RMSU=  3.94D-06    CP:  1.00D+00  9.05D-01  8.18D-01  1.19D+00  1.09D+00
 E= -633.320520434330     Delta-E=       -0.000000655027 Rises=F Damp=F
 DIIS: error= 2.52D-05 at cycle   6 NSaved=   6.
 NSaved= 6 IEnMin= 6 EnMin= -633.320520434330     IErMin= 6 ErrMin= 2.52D-05
 ErrMax= 2.52D-05  0.00D+00 EMaxC= 1.00D-01 BMatC= 4.87D-08 BMatP= 4.14D-07
 IDIUse=1 WtCom= 1.00D+00 WtEn= 0.00D+00
 Coeff-Com: -0.138D-02-0.282D-01-0.151D-01 0.385D-02 0.189D+00 0.852D+00
 Coeff:     -0.138D-02-0.282D-01-0.151D-01 0.385D-02 0.189D+00 0.852D+00
 Gap=     0.232 Goal=   None    Shift=    0.000
 RMSDP=5.37D-06 MaxDP=2.29D-04 DE=-6.55D-07 OVMax= 3.70D-04

 Cycle   7  Pass 1  IDiag  1:
 RMSU=  2.09D-06    CP:  1.00D+00  9.01D-01  8.32D-01  1.27D+00  1.19D+00
                    CP:  1.21D+00
 E= -633.320520568207     Delta-E=       -0.000000133877 Rises=F Damp=F
 DIIS: error= 9.69D-06 at cycle   7 NSaved=   7.
 NSaved= 7 IEnMin= 7 EnMin= -633.320520568207     IErMin= 7 ErrMin= 9.69D-06
 ErrMax= 9.69D-06  0.00D+00 EMaxC= 1.00D-01 BMatC= 2.17D-08 BMatP= 4.87D-08
 IDIUse=1 WtCom= 1.00D+00 WtEn= 0.00D+00
 Coeff-Com:  0.242D-02-0.110D-01-0.517D-02-0.703D-01-0.905D-01 0.431D+00
 Coeff-Com:  0.743D+00
 Coeff:      0.242D-02-0.110D-01-0.517D-02-0.703D-01-0.905D-01 0.431D+00
 Coeff:      0.743D+00
 Gap=     0.232 Goal=   None    Shift=    0.000
 RMSDP=2.20D-06 MaxDP=8.83D-05 DE=-1.34D-07 OVMax= 1.93D-04

 Cycle   8  Pass 1  IDiag  1:
 RMSU=  7.48D-07    CP:  1.00D+00  8.99D-01  8.37D-01  1.30D+00  1.25D+00
                    CP:  1.41D+00  1.12D+00
 E= -633.320520609455     Delta-E=       -0.000000041247 Rises=F Damp=F
 DIIS: error= 2.89D-06 at cycle   8 NSaved=   8.
 NSaved= 8 IEnMin= 8 EnMin= -633.320520609455     IErMin= 8 ErrMin= 2.89D-06
 ErrMax= 2.89D-06  0.00D+00 EMaxC= 1.00D-01 BMatC= 2.26D-09 BMatP= 2.17D-08
 IDIUse=1 WtCom= 1.00D+00 WtEn= 0.00D+00
 Coeff-Com:  0.107D-02-0.710D-04 0.961D-03-0.242D-01-0.763D-01 0.183D-01
 Coeff-Com:  0.265D+00 0.816D+00
 Coeff:      0.107D-02-0.710D-04 0.961D-03-0.242D-01-0.763D-01 0.183D-01
 Coeff:      0.265D+00 0.816D+00
 Gap=     0.232 Goal=   None    Shift=    0.000
 RMSDP=8.78D-07 MaxDP=3.09D-05 DE=-4.12D-08 OVMax= 7.00D-05

 Cycle   9  Pass 1  IDiag  1:
 RMSU=  2.51D-07    CP:  1.00D+00  8.98D-01  8.38D-01  1.31D+00  1.26D+00
                    CP:  1.52D+00  1.33D+00  1.16D+00
 E= -633.320520614108     Delta-E=       -0.000000004653 Rises=F Damp=F
 DIIS: error= 1.12D-06 at cycle   9 NSaved=   9.
 NSaved= 9 IEnMin= 9 EnMin= -633.320520614108     IErMin= 9 ErrMin= 1.12D-06
 ErrMax= 1.12D-06  0.00D+00 EMaxC= 1.00D-01 BMatC= 2.65D-10 BMatP= 2.26D-09
 IDIUse=1 WtCom= 1.00D+00 WtEn= 0.00D+00
 Coeff-Com:  0.124D-03 0.144D-02 0.109D-02 0.171D-02-0.182D-01-0.518D-01
 Coeff-Com:  0.106D-01 0.332D+00 0.723D+00
 Coeff:      0.124D-03 0.144D-02 0.109D-02 0.171D-02-0.182D-01-0.518D-01
 Coeff:      0.106D-01 0.332D+00 0.723D+00
 Gap=     0.232 Goal=   None    Shift=    0.000
 RMSDP=2.30D-07 MaxDP=1.05D-05 DE=-4.65D-09 OVMax= 2.00D-05

 Cycle  10  Pass 1  IDiag  1:
 RMSU=  9.99D-08    CP:  1.00D+00  8.98D-01  8.38D-01  1.31D+00  1.25D+00
                    CP:  1.53D+00  1.38D+00  1.26D+00  9.53D-01
 E= -633.320520614558     Delta-E=       -0.000000000451 Rises=F Damp=F
 DIIS: error= 3.82D-07 at cycle  10 NSaved=  10.
 NSaved=10 IEnMin=10 EnMin= -633.320520614558     IErMin=10 ErrMin= 3.82D-07
 ErrMax= 3.82D-07  0.00D+00 EMaxC= 1.00D-01 BMatC= 6.73D-11 BMatP= 2.65D-10
 IDIUse=1 WtCom= 1.00D+00 WtEn= 0.00D+00
 Coeff-Com: -0.669D-04 0.700D-03 0.299D-03 0.365D-02-0.564D-03-0.285D-01
 Coeff-Com: -0.225D-01 0.503D-01 0.355D+00 0.642D+00
 Coeff:     -0.669D-04 0.700D-03 0.299D-03 0.365D-02-0.564D-03-0.285D-01
 Coeff:     -0.225D-01 0.503D-01 0.355D+00 0.642D+00
 Gap=     0.232 Goal=   None    Shift=    0.000
 RMSDP=1.25D-07 MaxDP=9.46D-06 DE=-4.51D-10 OVMax= 5.40D-06

 Cycle  11  Pass 1  IDiag  1:
 RMSU=  4.90D-08    CP:  1.00D+00  8.99D-01  8.38D-01  1.31D+00  1.25D+00
                    CP:  1.54D+00  1.41D+00  1.28D+00  1.12D+00  9.13D-01
 E= -633.320520614629     Delta-E=       -0.000000000071 Rises=F Damp=F
 DIIS: error= 1.67D-07 at cycle  11 NSaved=  11.
 NSaved=11 IEnMin=11 EnMin= -633.320520614629     IErMin=11 ErrMin= 1.67D-07
 ErrMax= 1.67D-07  0.00D+00 EMaxC= 1.00D-01 BMatC= 1.21D-11 BMatP= 6.73D-11
 IDIUse=1 WtCom= 1.00D+00 WtEn= 0.00D+00
 Coeff-Com: -0.565D-04 0.916D-04-0.122D-03 0.163D-02 0.392D-02-0.342D-02
 Coeff-Com: -0.126D-01-0.523D-01 0.408D-01 0.308D+00 0.714D+00
 Coeff:     -0.565D-04 0.916D-04-0.122D-03 0.163D-02 0.392D-02-0.342D-02
 Coeff:     -0.126D-01-0.523D-01 0.408D-01 0.308D+00 0.714D+00
 Gap=     0.232 Goal=   None    Shift=    0.000
 RMSDP=4.78D-08 MaxDP=2.61D-06 DE=-7.11D-11 OVMax= 2.20D-06

 Cycle  12  Pass 1  IDiag  1:
 RMSU=  1.46D-08    CP:  1.00D+00  8.99D-01  8.38D-01  1.31D+00  1.25D+00
                    CP:  1.54D+00  1.41D+00  1.29D+00  1.15D+00  1.05D+00
                    CP:  9.63D-01
 E= -633.320520614640     Delta-E=       -0.000000000011 Rises=F Damp=F
 DIIS: error= 5.52D-08 at cycle  12 NSaved=  12.
 NSaved=12 IEnMin=12 EnMin= -633.320520614640     IErMin=12 ErrMin= 5.52D-08
 ErrMax= 5.52D-08  0.00D+00 EMaxC= 1.00D-01 BMatC= 1.28D-12 BMatP= 1.21D-11
 IDIUse=1 WtCom= 1.00D+00 WtEn= 0.00D+00
 Coeff-Com: -0.154D-04-0.310D-04-0.836D-04 0.184D-03 0.147D-02 0.217D-02
 Coeff-Com: -0.595D-03-0.261D-01-0.242D-01 0.229D-01 0.272D+00 0.752D+00
 Coeff:     -0.154D-04-0.310D-04-0.836D-04 0.184D-03 0.147D-02 0.217D-02
 Coeff:     -0.595D-03-0.261D-01-0.242D-01 0.229D-01 0.272D+00 0.752D+00
 Gap=     0.232 Goal=   None    Shift=    0.000
 RMSDP=1.61D-08 MaxDP=1.11D-06 DE=-1.10D-11 OVMax= 6.95D-07

 Cycle  13  Pass 1  IDiag  1:
 RMSU=  5.54D-09    CP:  1.00D+00  8.99D-01  8.38D-01  1.31D+00  1.25D+00
                    CP:  1.54D+00  1.41D+00  1.29D+00  1.17D+00  1.06D+00
                    CP:  1.10D+00  1.10D+00
 E= -633.320520614647     Delta-E=       -0.000000000007 Rises=F Damp=F
 DIIS: error= 1.68D-08 at cycle  13 NSaved=  13.
 NSaved=13 IEnMin=13 EnMin= -633.320520614647     IErMin=13 ErrMin= 1.68D-08
 ErrMax= 1.68D-08  0.00D+00 EMaxC= 1.00D-01 BMatC= 2.10D-13 BMatP= 1.28D-12
 IDIUse=1 WtCom= 1.00D+00 WtEn= 0.00D+00
 Coeff-Com:  0.285D-06-0.240D-04-0.199D-04-0.183D-03 0.773D-04 0.121D-02
 Coeff-Com:  0.154D-02-0.481D-02-0.176D-01-0.433D-01 0.375D-02 0.327D+00
 Coeff-Com:  0.732D+00
 Coeff:      0.285D-06-0.240D-04-0.199D-04-0.183D-03 0.773D-04 0.121D-02
 Coeff:      0.154D-02-0.481D-02-0.176D-01-0.433D-01 0.375D-02 0.327D+00
 Coeff:      0.732D+00
 Gap=     0.232 Goal=   None    Shift=    0.000
 RMSDP=6.46D-09 MaxDP=2.89D-07 DE=-6.59D-12 OVMax= 3.56D-07

 Error on total polarization charges =  0.00892
 SCF Done:  E(RCAM-B3LYP) =  -633.320520615     A.U. after   13 cycles
            NFock= 13  Conv=0.65D-08     -V/T= 2.0042
 KE= 6.306550637689D+02 PE=-3.274571471283D+03 EE= 1.111358973106D+03
 Leave Link  502 at Sat Jan 24 23:28:32 2026, MaxMem=  2147483648 cpu:             826.6 elap:              52.4
 (Enter /data/home/wyx/g16/l601.exe)
 Copying SCF densities to generalized density rwf, IOpCl= 0 IROHF=0.

 **********************************************************************

            Population analysis using the SCF density.

 **********************************************************************

 Orbital symmetries:
       Occupied  (A) (A) (A) (A) (A) (A) (A) (A) (A) (A) (A) (A)
                 (A) (A) (A) (A) (A) (A) (A) (A) (A) (A) (A) (A)
                 (A) (A) (A) (A) (A) (A) (A) (A) (A) (A) (A) (A)
                 (A) (A) (A) (A) (A) (A) (A) (A) (A) (A) (A) (A)
                 (A) (A) (A) (A)
       Virtual   (A) (A) (A) (A) (A) (A) (A) (A) (A) (A) (A) (A)
                 (A) (A) (A) (A) (A) (A) (A) (A) (A) (A) (A) (A)
                 (A) (A) (A) (A) (A) (A) (A) (A) (A) (A) (A) (A)
                 (A) (A) (A) (A) (A) (A) (A) (A) (A) (A) (A) (A)
                 (A) (A) (A) (A) (A) (A) (A) (A) (A) (A) (A) (A)
                 (A) (A) (A) (A) (A) (A) (A) (A) (A) (A) (A) (A)
                 (A) (A) (A) (A) (A) (A) (A) (A) (A) (A) (A) (A)
                 (A) (A) (A) (A) (A) (A) (A) (A) (A) (A) (A) (A)
                 (A) (A) (A) (A) (A) (A) (A) (A) (A) (A) (A) (A)
                 (A) (A) (A) (A) (A) (A) (A) (A) (A) (A) (A) (A)
                 (A) (A) (A) (A) (A) (A) (A) (A) (A) (A) (A) (A)
                 (A) (A) (A) (A) (A) (A) (A) (A) (A) (A) (A) (A)
                 (A) (A) (A) (A) (A) (A) (A) (A) (A) (A) (A) (A)
                 (A) (A) (A) (A) (A) (A) (A) (A) (A) (A) (A) (A)
                 (A) (A) (A) (A) (A) (A) (A) (A) (A) (A) (A) (A)
                 (A) (A) (A) (A) (A) (A) (A) (A) (A) (A) (A) (A)
                 (A) (A) (A) (A) (A) (A) (A) (A) (A) (A) (A) (A)
                 (A) (A) (A) (A) (A) (A) (A) (A) (A) (A) (A) (A)
                 (A) (A) (A) (A) (A) (A) (A) (A) (A) (A) (A) (A)
                 (A) (A) (A) (A) (A) (A) (A) (A) (A) (A) (A) (A)
                 (A) (A) (A) (A) (A) (A) (A) (A) (A) (A) (A) (A)
                 (A) (A) (A) (A) (A) (A) (A) (A) (A) (A) (A) (A)
                 (A) (A) (A) (A) (A) (A) (A) (A) (A) (A) (A) (A)
                 (A) (A) (A) (A) (A) (A) (A) (A) (A) (A) (A) (A)
                 (A) (A) (A) (A) (A) (A) (A) (A) (A) (A) (A) (A)
                 (A) (A) (A) (A)
 The electronic state is 1-A.
 Alpha  occ. eigenvalues --  -19.18252 -19.16380 -14.44663 -10.33790 -10.33009
 Alpha  occ. eigenvalues --  -10.32737 -10.32366 -10.26183 -10.25458 -10.25379
 Alpha  occ. eigenvalues --  -10.25313 -10.24551 -10.24215 -10.23405  -1.12252
 Alpha  occ. eigenvalues --   -1.08969  -1.07953  -0.91740  -0.90850  -0.84052
 Alpha  occ. eigenvalues --   -0.82635  -0.81705  -0.78732  -0.74577  -0.71725
 Alpha  occ. eigenvalues --   -0.69353  -0.62194  -0.58692  -0.57178  -0.55459
 Alpha  occ. eigenvalues --   -0.54934  -0.54213  -0.52553  -0.52014  -0.50888
 Alpha  occ. eigenvalues --   -0.50041  -0.49272  -0.49168  -0.48542  -0.48263
 Alpha  occ. eigenvalues --   -0.46670  -0.44954  -0.44767  -0.43881  -0.43237
 Alpha  occ. eigenvalues --   -0.42782  -0.41896  -0.40563  -0.33212  -0.32668
 Alpha  occ. eigenvalues --   -0.30444  -0.26572
 Alpha virt. eigenvalues --   -0.03415   0.01693   0.06204   0.08232   0.08530
 Alpha virt. eigenvalues --    0.09836   0.10731   0.11753   0.12543   0.13210
 Alpha virt. eigenvalues --    0.14140   0.15247   0.15374   0.16565   0.16833
 Alpha virt. eigenvalues --    0.17369   0.17614   0.18060   0.18361   0.19280
 Alpha virt. eigenvalues --    0.19648   0.20591   0.22384   0.23028   0.23766
 Alpha virt. eigenvalues --    0.24199   0.24526   0.25300   0.25766   0.26214
 Alpha virt. eigenvalues --    0.27436   0.27717   0.28442   0.29424   0.30014
 Alpha virt. eigenvalues --    0.31054   0.31683   0.32989   0.33496   0.34725
 Alpha virt. eigenvalues --    0.35019   0.35787   0.36992   0.37369   0.37717
 Alpha virt. eigenvalues --    0.39704   0.40796   0.41210   0.41992   0.42992
 Alpha virt. eigenvalues --    0.43958   0.44991   0.45167   0.46065   0.46157
 Alpha virt. eigenvalues --    0.47148   0.47910   0.48111   0.48467   0.48788
 Alpha virt. eigenvalues --    0.49226   0.50129   0.50678   0.51471   0.51600
 Alpha virt. eigenvalues --    0.52260   0.52687   0.53197   0.53584   0.53975
 Alpha virt. eigenvalues --    0.54646   0.55324   0.55674   0.57043   0.57783
 Alpha virt. eigenvalues --    0.58418   0.59392   0.59579   0.61588   0.62281
 Alpha virt. eigenvalues --    0.63682   0.64756   0.66197   0.67215   0.67794
 Alpha virt. eigenvalues --    0.68894   0.70187   0.70678   0.71115   0.72237
 Alpha virt. eigenvalues --    0.73262   0.74621   0.75663   0.76749   0.78588
 Alpha virt. eigenvalues --    0.79427   0.80523   0.82235   0.86550   0.86588
 Alpha virt. eigenvalues --    0.90202   0.90457   0.97747   1.01227   1.22641
 Alpha virt. eigenvalues --    1.23726   1.26490   1.27228   1.29721   1.30622
 Alpha virt. eigenvalues --    1.32350   1.32901   1.33986   1.35750   1.36280
 Alpha virt. eigenvalues --    1.37236   1.37687   1.38807   1.39448   1.39549
 Alpha virt. eigenvalues --    1.40122   1.40761   1.40935   1.41679   1.41856
 Alpha virt. eigenvalues --    1.42640   1.43570   1.44510   1.45025   1.46201
 Alpha virt. eigenvalues --    1.48119   1.49315   1.49656   1.50581   1.51341
 Alpha virt. eigenvalues --    1.51685   1.52261   1.53605   1.56188   1.57334
 Alpha virt. eigenvalues --    1.58779   1.60034   1.60300   1.60920   1.61773
 Alpha virt. eigenvalues --    1.62761   1.62958   1.64195   1.65060   1.65271
 Alpha virt. eigenvalues --    1.65835   1.66480   1.66906   1.68060   1.68500
 Alpha virt. eigenvalues --    1.68929   1.69319   1.70565   1.71447   1.73139
 Alpha virt. eigenvalues --    1.73617   1.73893   1.75800   1.76319   1.80271
 Alpha virt. eigenvalues --    1.80960   1.82785   1.84181   1.84945   1.86007
 Alpha virt. eigenvalues --    1.86535   1.86767   1.88864   1.89537   1.89909
 Alpha virt. eigenvalues --    1.91223   1.93214   1.96573   1.98187   2.01088
 Alpha virt. eigenvalues --    2.01967   2.04389   2.05356   2.06939   2.09568
 Alpha virt. eigenvalues --    2.10577   2.13797   2.14443   2.18736   2.19787
 Alpha virt. eigenvalues --    2.20585   2.22795   2.23295   2.24459   2.25457
 Alpha virt. eigenvalues --    2.27441   2.28869   2.29554   2.31444   2.32489
 Alpha virt. eigenvalues --    2.33921   2.34928   2.36158   2.37764   2.38819
 Alpha virt. eigenvalues --    2.40306   2.40948   2.41763   2.43703   2.45185
 Alpha virt. eigenvalues --    2.45833   2.47441   2.49025   2.49769   2.51251
 Alpha virt. eigenvalues --    2.52676   2.53456   2.54480   2.56061   2.57086
 Alpha virt. eigenvalues --    2.58011   2.59683   2.61097   2.61890   2.63111
 Alpha virt. eigenvalues --    2.63874   2.65656   2.66730   2.67394   2.68263
 Alpha virt. eigenvalues --    2.68685   2.71817   2.73156   2.74087   2.74724
 Alpha virt. eigenvalues --    2.76388   2.76610   2.77141   2.77989   2.78587
 Alpha virt. eigenvalues --    2.80487   2.81001   2.83035   2.84480   2.85315
 Alpha virt. eigenvalues --    2.85507   2.87371   2.89267   2.89512   2.92763
 Alpha virt. eigenvalues --    2.97716   2.98715   2.98826   3.03821   3.09118
 Alpha virt. eigenvalues --    3.10446   3.11392   3.13262   3.18797   3.20578
 Alpha virt. eigenvalues --    3.21311   3.21993   3.24114   3.24692   3.25556
 Alpha virt. eigenvalues --    3.27600   3.29823   3.31426   3.35168   3.37093
 Alpha virt. eigenvalues --    3.39058   3.39504   3.40361   3.40526   3.41331
 Alpha virt. eigenvalues --    3.41932   3.43800   3.45197   3.46704   3.49655
 Alpha virt. eigenvalues --    3.50784   3.51469   3.54527   3.58284   3.59120
 Alpha virt. eigenvalues --    3.61058   3.91167   3.99466   4.30939   4.34751
 Alpha virt. eigenvalues --   21.63787  21.76651  22.05645  22.10061  22.11568
 Alpha virt. eigenvalues --   22.12763  22.15574  22.18349  22.20634  22.26026
 Alpha virt. eigenvalues --   22.30995  31.92881  43.63515  43.66448
          Condensed to atoms (all electrons):
               1          2          3          4          5          6
     1  O    7.952501   0.000000  -0.000231   0.000017   0.017038   0.016269
     2  O    0.000000   8.054247   0.000720   0.000036  -0.179004   0.001415
     3  N   -0.000231   0.000720   6.371004   0.372640  -0.102196   0.374246
     4  H    0.000017   0.000036   0.372640   0.394396   0.011668  -0.042464
     5  C    0.017038  -0.179004  -0.102196   0.011668   7.132549  -0.050305
     6  C    0.016269   0.001415   0.374246  -0.042464  -0.050305   5.608565
     7  C   -0.000100  -0.006400   0.350843  -0.043205   0.339200  -0.139630
     8  C   -0.000301   0.627007   0.004866  -0.001010  -0.398489   0.044213
     9  C   -0.013407   0.021538   0.019840   0.000579  -0.656007  -0.089677
    10  H    0.004804   0.000009   0.002649   0.000029  -0.028328  -0.007552
    11  H    0.012376  -0.000232  -0.001308  -0.000002  -0.120367   0.023566
    12  C   -0.242150  -0.003174  -0.105484   0.017345   0.204253  -0.179223
    13  C    0.731306  -0.000002   0.000035   0.000474   0.067086   0.137226
    14  C   -0.000012  -0.063860  -0.048711   0.001049  -0.000426  -0.004952
    15  H    0.000000   0.004677   0.003261  -0.000028   0.003269   0.003993
    16  H   -0.000000   0.001164  -0.002937   0.000368  -0.015081   0.000256
    17  H    0.000000   0.027679   0.003737   0.000676   0.004796  -0.000283
    18  C   -0.000282  -0.096029  -0.000281   0.000019  -0.164845  -0.002162
    19  H   -0.000001   0.002503   0.000007  -0.000001   0.006744   0.000045
    20  H    0.000014  -0.001139   0.000012  -0.000001  -0.012313   0.000149
    21  H    0.000559   0.006988   0.000089   0.000000   0.077978  -0.001565
    22  C   -0.116299   0.000000   0.000196   0.000108   0.001511  -0.010062
    23  H    0.004270  -0.000000   0.000016  -0.000051  -0.000418  -0.029521
    24  H    0.001940   0.000000   0.000047  -0.000016  -0.000069   0.010378
    25  H    0.009523   0.000000   0.000026  -0.000002  -0.000102  -0.001294
    26  C    0.000900   0.000007  -0.028641  -0.009261   0.001074   0.189821
    27  H   -0.000152  -0.000000   0.001390   0.000894   0.000180  -0.038800
    28  H   -0.000035  -0.000000  -0.002967   0.000525   0.000456  -0.037081
    29  H    0.000021   0.000000   0.002612   0.001679  -0.000515  -0.052448
               7          8          9         10         11         12
     1  O   -0.000100  -0.000301  -0.013407   0.004804   0.012376  -0.242150
     2  O   -0.006400   0.627007   0.021538   0.000009  -0.000232  -0.003174
     3  N    0.350843   0.004866   0.019840   0.002649  -0.001308  -0.105484
     4  H   -0.043205  -0.001010   0.000579   0.000029  -0.000002   0.017345
     5  C    0.339200  -0.398489  -0.656007  -0.028328  -0.120367   0.204253
     6  C   -0.139630   0.044213  -0.089677  -0.007552   0.023566  -0.179223
     7  C    5.513315  -0.233527  -0.236455  -0.004293   0.015753   0.046807
     8  C   -0.233527   5.633725   0.179975  -0.001695  -0.002432  -0.080918
     9  C   -0.236455   0.179975   6.511387   0.398909   0.544612  -0.159785
    10  H   -0.004293  -0.001695   0.398909   0.550529  -0.037291  -0.023267
    11  H    0.015753  -0.002432   0.544612  -0.037291   0.506705  -0.101183
    12  C    0.046807  -0.080918  -0.159785  -0.023267  -0.101183   7.524380
    13  C    0.022533  -0.009426  -0.245397  -0.005835  -0.001330  -0.472779
    14  C    0.207990  -0.080581   0.020180  -0.001223   0.000333   0.002359
    15  H   -0.057715   0.006525  -0.001261   0.000134  -0.000008  -0.000598
    16  H   -0.016566   0.005670  -0.000127  -0.000037   0.000051  -0.000407
    17  H   -0.045798  -0.022210   0.001436   0.000072  -0.000053  -0.000267
    18  C    0.022129   0.300292  -0.008599  -0.008653  -0.006070   0.010467
    19  H   -0.000319  -0.030594  -0.001851   0.000404   0.000510  -0.000227
    20  H   -0.001261  -0.006490  -0.001628   0.000359  -0.000055  -0.001418
    21  H    0.004883  -0.130833  -0.016575  -0.001517  -0.006200   0.006634
    22  C    0.000881  -0.000045   0.011290   0.001470   0.000386  -0.287799
    23  H   -0.000004  -0.000001   0.002511  -0.000147  -0.000004   0.056371
    24  H   -0.000035   0.000003  -0.002177   0.000168  -0.000117  -0.004005
    25  H    0.000011   0.000001  -0.000104  -0.000057  -0.000084   0.027216
    26  C    0.003133   0.000815   0.021096  -0.000437   0.000037  -0.081528
    27  H   -0.000745  -0.000005  -0.000966  -0.000056   0.000012  -0.004502
    28  H   -0.001213  -0.000010  -0.000249  -0.000015   0.000049  -0.018969
    29  H    0.003388   0.000010  -0.000553   0.000056  -0.000008   0.024100
              13         14         15         16         17         18
     1  O    0.731306  -0.000012   0.000000  -0.000000   0.000000  -0.000282
     2  O   -0.000002  -0.063860   0.004677   0.001164   0.027679  -0.096029
     3  N    0.000035  -0.048711   0.003261  -0.002937   0.003737  -0.000281
     4  H    0.000474   0.001049  -0.000028   0.000368   0.000676   0.000019
     5  C    0.067086  -0.000426   0.003269  -0.015081   0.004796  -0.164845
     6  C    0.137226  -0.004952   0.003993   0.000256  -0.000283  -0.002162
     7  C    0.022533   0.207990  -0.057715  -0.016566  -0.045798   0.022129
     8  C   -0.009426  -0.080581   0.006525   0.005670  -0.022210   0.300292
     9  C   -0.245397   0.020180  -0.001261  -0.000127   0.001436  -0.008599
    10  H   -0.005835  -0.001223   0.000134  -0.000037   0.000072  -0.008653
    11  H   -0.001330   0.000333  -0.000008   0.000051  -0.000053  -0.006070
    12  C   -0.472779   0.002359  -0.000598  -0.000407  -0.000267   0.010467
    13  C    5.524342  -0.000060  -0.000018  -0.000026   0.000003   0.001078
    14  C   -0.000060   5.258311   0.385678   0.394692   0.417947  -0.001765
    15  H   -0.000018   0.385678   0.565313  -0.031153  -0.022921   0.000170
    16  H   -0.000026   0.394692  -0.031153   0.511311  -0.015017   0.000053
    17  H    0.000003   0.417947  -0.022921  -0.015017   0.449407   0.001116
    18  C    0.001078  -0.001765   0.000170   0.000053   0.001116   5.205848
    19  H   -0.000020  -0.000039   0.000001  -0.000009   0.000071   0.405131
    20  H   -0.000061  -0.000223  -0.000006   0.000015   0.000013   0.391724
    21  H    0.001746   0.000409  -0.000023  -0.000004  -0.000143   0.406568
    22  C    0.312962   0.000012   0.000002  -0.000002   0.000000   0.000022
    23  H   -0.080194   0.000001  -0.000000   0.000000   0.000000   0.000001
    24  H   -0.032255  -0.000001   0.000000  -0.000000  -0.000000  -0.000001
    25  H   -0.046748   0.000000   0.000000  -0.000000  -0.000000  -0.000000
    26  C   -0.054987   0.000429  -0.000253  -0.000010   0.000015  -0.000018
    27  H   -0.006890   0.000058  -0.000011   0.000005  -0.000001   0.000000
    28  H    0.006438  -0.000063   0.000014  -0.000017   0.000001  -0.000000
    29  H   -0.000267   0.000125   0.000045   0.000009   0.000002   0.000000
              19         20         21         22         23         24
     1  O   -0.000001   0.000014   0.000559  -0.116299   0.004270   0.001940
     2  O    0.002503  -0.001139   0.006988   0.000000  -0.000000   0.000000
     3  N    0.000007   0.000012   0.000089   0.000196   0.000016   0.000047
     4  H   -0.000001  -0.000001   0.000000   0.000108  -0.000051  -0.000016
     5  C    0.006744  -0.012313   0.077978   0.001511  -0.000418  -0.000069
     6  C    0.000045   0.000149  -0.001565  -0.010062  -0.029521   0.010378
     7  C   -0.000319  -0.001261   0.004883   0.000881  -0.000004  -0.000035
     8  C   -0.030594  -0.006490  -0.130833  -0.000045  -0.000001   0.000003
     9  C   -0.001851  -0.001628  -0.016575   0.011290   0.002511  -0.002177
    10  H    0.000404   0.000359  -0.001517   0.001470  -0.000147   0.000168
    11  H    0.000510  -0.000055  -0.006200   0.000386  -0.000004  -0.000117
    12  C   -0.000227  -0.001418   0.006634  -0.287799   0.056371  -0.004005
    13  C   -0.000020  -0.000061   0.001746   0.312962  -0.080194  -0.032255
    14  C   -0.000039  -0.000223   0.000409   0.000012   0.000001  -0.000001
    15  H    0.000001  -0.000006  -0.000023   0.000002  -0.000000   0.000000
    16  H   -0.000009   0.000015  -0.000004  -0.000002   0.000000  -0.000000
    17  H    0.000071   0.000013  -0.000143   0.000000   0.000000  -0.000000
    18  C    0.405131   0.391724   0.406568   0.000022   0.000001  -0.000001
    19  H    0.494461  -0.012502  -0.029040  -0.000000   0.000000   0.000000
    20  H   -0.012502   0.495804  -0.020904  -0.000002  -0.000000   0.000000
    21  H   -0.029040  -0.020904   0.549242   0.000042  -0.000001  -0.000001
    22  C   -0.000000  -0.000002   0.000042   5.434342   0.390013   0.404070
    23  H    0.000000  -0.000000  -0.000001   0.390013   0.542973  -0.028485
    24  H    0.000000   0.000000  -0.000001   0.404070  -0.028485   0.494808
    25  H   -0.000000  -0.000000  -0.000001   0.382486  -0.021076  -0.007909
    26  C    0.000000   0.000001  -0.000014  -0.036883   0.019276  -0.015705
    27  H   -0.000000   0.000000  -0.000000   0.011253  -0.009228  -0.001153
    28  H    0.000000  -0.000000   0.000000  -0.012766  -0.001933   0.001479
    29  H    0.000000  -0.000000  -0.000000   0.001800   0.000729   0.000188
              25         26         27         28         29
     1  O    0.009523   0.000900  -0.000152  -0.000035   0.000021
     2  O    0.000000   0.000007  -0.000000  -0.000000   0.000000
     3  N    0.000026  -0.028641   0.001390  -0.002967   0.002612
     4  H   -0.000002  -0.009261   0.000894   0.000525   0.001679
     5  C   -0.000102   0.001074   0.000180   0.000456  -0.000515
     6  C   -0.001294   0.189821  -0.038800  -0.037081  -0.052448
     7  C    0.000011   0.003133  -0.000745  -0.001213   0.003388
     8  C    0.000001   0.000815  -0.000005  -0.000010   0.000010
     9  C   -0.000104   0.021096  -0.000966  -0.000249  -0.000553
    10  H   -0.000057  -0.000437  -0.000056  -0.000015   0.000056
    11  H   -0.000084   0.000037   0.000012   0.000049  -0.000008
    12  C    0.027216  -0.081528  -0.004502  -0.018969   0.024100
    13  C   -0.046748  -0.054987  -0.006890   0.006438  -0.000267
    14  C    0.000000   0.000429   0.000058  -0.000063   0.000125
    15  H    0.000000  -0.000253  -0.000011   0.000014   0.000045
    16  H   -0.000000  -0.000010   0.000005  -0.000017   0.000009
    17  H   -0.000000   0.000015  -0.000001   0.000001   0.000002
    18  C   -0.000000  -0.000018   0.000000  -0.000000   0.000000
    19  H   -0.000000   0.000000  -0.000000   0.000000   0.000000
    20  H   -0.000000   0.000001   0.000000  -0.000000  -0.000000
    21  H   -0.000001  -0.000014  -0.000000   0.000000  -0.000000
    22  C    0.382486  -0.036883   0.011253  -0.012766   0.001800
    23  H   -0.021076   0.019276  -0.009228  -0.001933   0.000729
    24  H   -0.007909  -0.015705  -0.001153   0.001479   0.000188
    25  H    0.497957   0.001851   0.000760   0.000105  -0.000047
    26  C    0.001851   5.250979   0.417078   0.435613   0.389473
    27  H    0.000760   0.417078   0.512436  -0.027465  -0.025298
    28  H    0.000105   0.435613  -0.027465   0.474112  -0.015753
    29  H   -0.000047   0.389473  -0.025298  -0.015753   0.515345
 Mulliken charges:
               1
     1  O   -0.378566
     2  O   -0.398152
     3  N   -0.215481
     4  H    0.293537
     5  C   -0.139339
     6  C    0.276878
     7  C    0.256401
     8  C    0.195465
     9  C   -0.298536
    10  H    0.160810
    11  H    0.172353
    12  C   -0.152248
    13  C    0.151068
    14  C   -0.487658
    15  H    0.140912
    16  H    0.167796
    17  H    0.199721
    18  C   -0.455914
    19  H    0.164726
    20  H    0.169910
    21  H    0.151681
    22  C   -0.488990
    23  H    0.154901
    24  H    0.178845
    25  H    0.157486
    26  C   -0.503861
    27  H    0.171204
    28  H    0.199746
    29  H    0.155305
 Sum of Mulliken charges =  -0.00000
 Mulliken charges with hydrogens summed into heavy atoms:
               1
     1  O   -0.378566
     2  O   -0.398152
     3  N    0.078056
     5  C   -0.139339
     6  C    0.276878
     7  C    0.256401
     8  C    0.195465
     9  C    0.034626
    12  C   -0.152248
    13  C    0.151068
    14  C    0.020771
    18  C    0.030403
    22  C    0.002242
    26  C    0.022395
 Electronic spatial extent (au):  <R**2>=           3218.4298
 Charge=             -0.0000 electrons
 Dipole moment (field-independent basis, Debye):
    X=             -3.8580    Y=              7.5624    Z=             -0.1871  Tot=              8.4917
 Quadrupole moment (field-independent basis, Debye-Ang):
   XX=            -97.5035   YY=            -78.5677   ZZ=            -84.5707
   XY=            -13.9086   XZ=             -3.2140   YZ=             -0.9821
 Traceless Quadrupole moment (field-independent basis, Debye-Ang):
   XX=            -10.6229   YY=              8.3130   ZZ=              2.3099
   XY=            -13.9086   XZ=             -3.2140   YZ=             -0.9821
 Octapole moment (field-independent basis, Debye-Ang**2):
  XXX=           -109.7747  YYY=             65.4028  ZZZ=              1.9170  XYY=             38.9708
  XXY=             28.3526  XXZ=             -7.3982  XZZ=             -1.1703  YZZ=             -0.9256
  YYZ=              2.1228  XYZ=              2.7411
 Hexadecapole moment (field-independent basis, Debye-Ang**3):
 XXXX=          -3103.6049 YYYY=          -1277.6843 ZZZZ=           -135.2700 XXXY=            -52.0200
 XXXZ=            -43.2173 YYYX=            -97.7722 YYYZ=            -14.6639 ZZZX=              3.4912
 ZZZY=              2.7411 XXYY=           -685.7209 XXZZ=           -485.8920 YYZZ=           -235.6732
 XXYZ=             -2.0927 YYXZ=             -3.6780 ZZXY=             -2.4524
 N-N= 8.992369137937D+02 E-N=-3.274571469122D+03  KE= 6.306550637689D+02
 No NMR shielding tensors so no spin-rotation constants.
 Leave Link  601 at Sat Jan 24 23:28:32 2026, MaxMem=  2147483648 cpu:               1.8 elap:               0.1
 (Enter /data/home/wyx/g16/l9999.exe)
 1\1\GINC-CN015\SP\RCAM-B3LYP\TZVP\C11H15N1O2\WYX\24-Jan-2026\0\\#p CAM
 -B3LYP TZVP em=gd3bj scrf=(Solvent=Water,NonEquilibrium=Read) Geom=Che
 ck Guess=Read\\Title Card Required\\0,1\O,0,2.760405,-1.555555,0.68975
 1\O,0,-3.339402,-1.661837,-0.863072\N,0,-0.671754,1.523624,-0.014867\H
 ,0,-0.980603,2.478498,-0.094279\C,0,-1.239227,-0.767642,-0.166759\C,0,
 0.660059,1.311921,0.19056\C,0,-1.608605,0.53769,-0.271327\C,0,-2.15067
 7,-1.825896,-0.437212\C,0,0.153319,-1.123275,0.295133\H,0,0.11793,-1.5
 56706,1.301188\H,0,0.567617,-1.904442,-0.342689\C,0,1.120531,0.037935,
 0.297356\C,0,2.505018,-0.369993,0.473265\C,0,-2.94411,1.070901,-0.6396
 6\H,0,-3.25122,1.883088,0.025267\H,0,-2.955389,1.461451,-1.660282\H,0,
 -3.739176,0.329041,-0.593283\C,0,-1.806385,-3.268498,-0.224969\H,0,-2.
 618101,-3.849245,0.216945\H,0,-1.559398,-3.75311,-1.174406\H,0,-0.9438
 59,-3.41376,0.422595\C,0,3.667745,0.586662,0.375697\H,0,3.586679,1.271
 735,-0.464221\H,0,3.757683,1.179408,1.286921\H,0,4.570556,-0.009722,0.
 269314\C,0,1.43952,2.58994,0.264299\H,0,2.172341,2.580919,1.063334\H,0
 ,1.958935,2.788452,-0.673345\H,0,0.769569,3.428417,0.448744\\Version=E
 S64L-G16RevA.03\State=1-A\HF=-633.3205206\RMSD=6.457e-09\Dipole=0.3786
 135,3.3186774,0.0686979\Quadrupole=-11.4607572,11.216086,0.2446712,3.1
 762251,-5.1174072,0.234329\PG=C01 [X(C11H15N1O2)]\\@


 CHARLIE BROWN.."I CAN'T GET THAT STUPID KITE IN THE
 AIR... I CAN'T... I C A N N O T..."
 LUCY.."OH COME NOW CHARLIE BROWN...THAT'S NO WAY TO TALK...
 THE TROUBLE WITH YOU IS YOU DON'T BELIEVE IN YOURSELF... YOU
 DON'T BELIEVE IN YOUR OWN ABILITIES...  YOU'VE GOT TO SAY TO
 YOURSELF...'I BELIEVE I CAN FLY THIS KITE.'... GO AHEAD SAY
 IT...."
 CHARLIE BROWN.."I BELIEVE THAT I CAN FLY THIS STUPID
 KITE.....I BELIEVE THAT I CAN FLY THIS KITE........
 I  A C T U A L L Y  B E L I E V E  T H A T  I  C A N ******"
 LUCY.."I'LL BET YOU TEN-TO-ONE YOU'RE WRONG......."    SCHULZ
 Job cpu time:       0 days  0 hours 13 minutes 57.6 seconds.
 Elapsed time:       0 days  0 hours  0 minutes 53.2 seconds.
 File lengths (MBytes):  RWF=    340 Int=      0 D2E=      0 Chk=     67 Scr=      1
 Normal termination of Gaussian 16 at Sat Jan 24 23:28:32 2026.
