 Entering Gaussian System, Link 0=g16
 Input=DDL-LR-10.gjf
 Output=DDL-LR-10.log
 Initial command:
 /data/home/wyx/g16/l1.exe "/scr/tmp/wyx/13119/Gau-1512160.inp" -scrdir="/scr/tmp/wyx/13119/"
 Entering Link 1 = /data/home/wyx/g16/l1.exe PID=   1512161.
  
 Copyright (c) 1988,1990,1992,1993,1995,1998,2003,2009,2016,
            Gaussian, Inc.  All Rights Reserved.
  
 This is part of the Gaussian(R) 16 program.  It is based on
 the Gaussian(R) 09 system (copyright 2009, Gaussian, Inc.),
 the Gaussian(R) 03 system (copyright 2003, Gaussian, Inc.),
 the Gaussian(R) 98 system (copyright 1998, Gaussian, Inc.),
 the Gaussian(R) 94 system (copyright 1995, Gaussian, Inc.),
 the Gaussian 92(TM) system (copyright 1992, Gaussian, Inc.),
 the Gaussian 90(TM) system (copyright 1990, Gaussian, Inc.),
 the Gaussian 88(TM) system (copyright 1988, Gaussian, Inc.),
 the Gaussian 86(TM) system (copyright 1986, Carnegie Mellon
 University), and the Gaussian 82(TM) system (copyright 1983,
 Carnegie Mellon University). Gaussian is a federally registered
 trademark of Gaussian, Inc.
  
 This software contains proprietary and confidential information,
 including trade secrets, belonging to Gaussian, Inc.
  
 This software is provided under written license and may be
 used, copied, transmitted, or stored only in accord with that
 written license.
  
 The following legend is applicable only to US Government
 contracts under FAR:
  
                    RESTRICTED RIGHTS LEGEND
  
 Use, reproduction and disclosure by the US Government is
 subject to restrictions as set forth in subparagraphs (a)
 and (c) of the Commercial Computer Software - Restricted
 Rights clause in FAR 52.227-19.
  
 Gaussian, Inc.
 340 Quinnipiac St., Bldg. 40, Wallingford CT 06492
  
  
 ---------------------------------------------------------------
 Warning -- This program may not be used in any manner that
 competes with the business of Gaussian, Inc. or will provide
 assistance to any competitor of Gaussian, Inc.  The licensee
 of this program is prohibited from giving any competitor of
 Gaussian, Inc. access to this program.  By using this program,
 the user acknowledges that Gaussian, Inc. is engaged in the
 business of creating and licensing software in the field of
 computational chemistry and represents and warrants to the
 licensee that it is not a competitor of Gaussian, Inc. and that
 it will not use this program in any manner prohibited above.
 ---------------------------------------------------------------
  

 Cite this work as:
 Gaussian 16, Revision A.03,
 M. J. Frisch, G. W. Trucks, H. B. Schlegel, G. E. Scuseria, 
 M. A. Robb, J. R. Cheeseman, G. Scalmani, V. Barone, 
 G. A. Petersson, H. Nakatsuji, X. Li, M. Caricato, A. V. Marenich, 
 J. Bloino, B. G. Janesko, R. Gomperts, B. Mennucci, H. P. Hratchian, 
 J. V. Ortiz, A. F. Izmaylov, J. L. Sonnenberg, D. Williams-Young, 
 F. Ding, F. Lipparini, F. Egidi, J. Goings, B. Peng, A. Petrone, 
 T. Henderson, D. Ranasinghe, V. G. Zakrzewski, J. Gao, N. Rega, 
 G. Zheng, W. Liang, M. Hada, M. Ehara, K. Toyota, R. Fukuda, 
 J. Hasegawa, M. Ishida, T. Nakajima, Y. Honda, O. Kitao, H. Nakai, 
 T. Vreven, K. Throssell, J. A. Montgomery, Jr., J. E. Peralta, 
 F. Ogliaro, M. J. Bearpark, J. J. Heyd, E. N. Brothers, K. N. Kudin, 
 V. N. Staroverov, T. A. Keith, R. Kobayashi, J. Normand, 
 K. Raghavachari, A. P. Rendell, J. C. Burant, S. S. Iyengar, 
 J. Tomasi, M. Cossi, J. M. Millam, M. Klene, C. Adamo, R. Cammi, 
 J. W. Ochterski, R. L. Martin, K. Morokuma, O. Farkas, 
 J. B. Foresman, and D. J. Fox, Gaussian, Inc., Wallingford CT, 2016.
 
 ******************************************
 Gaussian 16:  ES64L-G16RevA.03 25-Dec-2016
                24-Jan-2026 
 ******************************************
 %nprocshared=16
 Will use up to   16 processors via shared memory.
 %mem=16GB
 %chk=DDL-LR-10.chk
 --------------------------------------------------------------------
 #p CAM-B3LYP TZVP em=gd3bj td(nstates=6,root=1) scrf=(Solvent=Water)
 --------------------------------------------------------------------
 1/38=1,172=1/1;
 2/12=2,17=6,18=5,40=1/2;
 3/5=19,7=101,11=9,25=1,30=1,70=2201,72=1,74=-40,124=41/1,2,3,8;
 4//1;
 5/5=2,38=5,53=1/2;
 8/6=1,10=1,107=1,108=6/1;
 9/8=1,41=6,42=1,70=2/14;
 6/7=2,8=2,9=2,10=2/1;
 99/5=1,9=1/99;
 Leave Link    1 at Sat Jan 24 16:18:51 2026, MaxMem=  2147483648 cpu:               0.4 elap:               0.1
 (Enter /data/home/wyx/g16/l101.exe)
 -------------------
 Title Card Required
 -------------------
 Symbolic Z-matrix:
 Charge =  0 Multiplicity = 1
 O                     2.75547  -1.55782   0.70606 
 O                    -3.29601  -1.6535   -0.97365 
 N                    -0.68662   1.52038   0.04655 
 H                    -0.99336   2.47663  -0.02484 
 C                    -1.24207  -0.7625   -0.16046 
 C                     0.65331   1.30644   0.22981 
 C                    -1.61144   0.53966  -0.25104 
 C                    -2.15344  -1.82497  -0.48553 
 C                     0.1309   -1.11739   0.35655 
 H                     0.06395  -1.50036   1.38221 
 H                     0.55123  -1.93377  -0.22914 
 C                     1.10964   0.03329   0.32374 
 C                     2.50013  -0.37867   0.46556 
 C                    -2.94061   1.07324  -0.64883 
 H                    -3.17557   1.99823  -0.11718 
 H                    -2.97999   1.2903   -1.7182 
 H                    -3.76036   0.38672  -0.45044 
 C                    -1.77989  -3.25479  -0.23518 
 H                    -2.64202  -3.89681  -0.05395 
 H                    -1.25473  -3.67395  -1.09867 
 H                    -1.11214  -3.3886    0.6156 
 C                     3.66134   0.56898   0.29638 
 H                     3.53402   1.25747  -0.53477 
 H                     3.81157   1.15684   1.20303 
 H                     4.55167  -0.03386   0.13484 
 C                     1.43188   2.58476   0.29554 
 H                     2.21293   2.55618   1.0463 
 H                     1.88922   2.81466  -0.66736 
 H                     0.77103   3.41321   0.54709 
 
 ITRead=  0  0  0  0  0  0  0  0  0  0  0  0  0  0  0  0  0  0  0  0
 ITRead=  0  0  0  0  0  0  0  0  0
 MicOpt= -1 -1 -1 -1 -1 -1 -1 -1 -1 -1 -1 -1 -1 -1 -1 -1 -1 -1 -1 -1
 MicOpt= -1 -1 -1 -1 -1 -1 -1 -1 -1
 NAtoms=     29 NQM=       29 NQMF=       0 NMMI=      0 NMMIF=      0
                NMic=       0 NMicF=      0.
                    Isotopes and Nuclear Properties:
 (Nuclear quadrupole moments (NQMom) in fm**2, nuclear magnetic moments (NMagM)
  in nuclear magnetons)

  Atom         1           2           3           4           5           6           7           8           9          10
 IAtWgt=          16          16          14           1          12          12          12          12          12           1
 AtmWgt=  15.9949146  15.9949146  14.0030740   1.0078250  12.0000000  12.0000000  12.0000000  12.0000000  12.0000000   1.0078250
 NucSpn=           0           0           2           1           0           0           0           0           0           1
 AtZEff=  -0.0000000  -0.0000000  -0.0000000  -0.0000000  -0.0000000  -0.0000000  -0.0000000  -0.0000000  -0.0000000  -0.0000000
 NQMom=    0.0000000   0.0000000   2.0440000   0.0000000   0.0000000   0.0000000   0.0000000   0.0000000   0.0000000   0.0000000
 NMagM=    0.0000000   0.0000000   0.4037610   2.7928460   0.0000000   0.0000000   0.0000000   0.0000000   0.0000000   2.7928460
 AtZNuc=   8.0000000   8.0000000   7.0000000   1.0000000   6.0000000   6.0000000   6.0000000   6.0000000   6.0000000   1.0000000

  Atom        11          12          13          14          15          16          17          18          19          20
 IAtWgt=           1          12          12          12           1           1           1          12           1           1
 AtmWgt=   1.0078250  12.0000000  12.0000000  12.0000000   1.0078250   1.0078250   1.0078250  12.0000000   1.0078250   1.0078250
 NucSpn=           1           0           0           0           1           1           1           0           1           1
 AtZEff=  -0.0000000  -0.0000000  -0.0000000  -0.0000000  -0.0000000  -0.0000000  -0.0000000  -0.0000000  -0.0000000  -0.0000000
 NQMom=    0.0000000   0.0000000   0.0000000   0.0000000   0.0000000   0.0000000   0.0000000   0.0000000   0.0000000   0.0000000
 NMagM=    2.7928460   0.0000000   0.0000000   0.0000000   2.7928460   2.7928460   2.7928460   0.0000000   2.7928460   2.7928460
 AtZNuc=   1.0000000   6.0000000   6.0000000   6.0000000   1.0000000   1.0000000   1.0000000   6.0000000   1.0000000   1.0000000

  Atom        21          22          23          24          25          26          27          28          29
 IAtWgt=           1          12           1           1           1          12           1           1           1
 AtmWgt=   1.0078250  12.0000000   1.0078250   1.0078250   1.0078250  12.0000000   1.0078250   1.0078250   1.0078250
 NucSpn=           1           0           1           1           1           0           1           1           1
 AtZEff=  -0.0000000  -0.0000000  -0.0000000  -0.0000000  -0.0000000  -0.0000000  -0.0000000  -0.0000000  -0.0000000
 NQMom=    0.0000000   0.0000000   0.0000000   0.0000000   0.0000000   0.0000000   0.0000000   0.0000000   0.0000000
 NMagM=    2.7928460   0.0000000   2.7928460   2.7928460   2.7928460   0.0000000   2.7928460   2.7928460   2.7928460
 AtZNuc=   1.0000000   6.0000000   1.0000000   1.0000000   1.0000000   6.0000000   1.0000000   1.0000000   1.0000000
 Leave Link  101 at Sat Jan 24 16:18:51 2026, MaxMem=  2147483648 cpu:               0.8 elap:               0.1
 (Enter /data/home/wyx/g16/l202.exe)
                          Input orientation:                          
 ---------------------------------------------------------------------
 Center     Atomic      Atomic             Coordinates (Angstroms)
 Number     Number       Type             X           Y           Z
 ---------------------------------------------------------------------
      1          8           0        2.755473   -1.557823    0.706056
      2          8           0       -3.296014   -1.653497   -0.973651
      3          7           0       -0.686622    1.520378    0.046546
      4          1           0       -0.993362    2.476631   -0.024841
      5          6           0       -1.242073   -0.762503   -0.160459
      6          6           0        0.653310    1.306439    0.229805
      7          6           0       -1.611443    0.539659   -0.251040
      8          6           0       -2.153442   -1.824971   -0.485530
      9          6           0        0.130902   -1.117389    0.356546
     10          1           0        0.063954   -1.500358    1.382209
     11          1           0        0.551226   -1.933767   -0.229139
     12          6           0        1.109638    0.033294    0.323739
     13          6           0        2.500127   -0.378668    0.465556
     14          6           0       -2.940612    1.073239   -0.648830
     15          1           0       -3.175574    1.998230   -0.117181
     16          1           0       -2.979990    1.290297   -1.718196
     17          1           0       -3.760355    0.386720   -0.450441
     18          6           0       -1.779893   -3.254785   -0.235175
     19          1           0       -2.642020   -3.896807   -0.053949
     20          1           0       -1.254733   -3.673948   -1.098671
     21          1           0       -1.112143   -3.388600    0.615599
     22          6           0        3.661336    0.568976    0.296378
     23          1           0        3.534019    1.257471   -0.534773
     24          1           0        3.811569    1.156844    1.203028
     25          1           0        4.551667   -0.033855    0.134837
     26          6           0        1.431880    2.584757    0.295544
     27          1           0        2.212928    2.556175    1.046299
     28          1           0        1.889223    2.814656   -0.667357
     29          1           0        0.771026    3.413205    0.547092
 ---------------------------------------------------------------------
                    Distance matrix (angstroms):
                    1          2          3          4          5
     1  O    0.000000
     2  O    6.281008   0.000000
     3  N    4.664579   4.233581   0.000000
     4  H    5.555609   4.822904   1.006780   0.000000
     5  C    4.166984   2.381979   2.358585   3.251498   0.000000
     6  C    3.584676   5.080028   1.369223   2.036105   2.832897
     7  C    4.938159   2.858300   1.380457   2.045740   1.356564
     8  C    5.058527   1.254247   3.691345   4.479040   1.437047
     9  C    2.684122   3.714914   2.778896   3.785024   1.509403
    10  H    2.775745   4.106448   3.387065   4.349040   2.151734
    11  H    2.423763   3.928626   3.679591   4.677510   2.143011
    12  C    2.320903   4.892674   2.348362   3.242532   2.529483
    13  C    1.230223   6.106698   3.733271   4.538467   3.813566
    14  C    6.419002   2.768918   2.400823   2.480051   2.548233
    15  H    6.964234   3.752753   2.539691   2.235944   3.370749
    16  H    6.847213   3.052891   2.902893   2.867321   3.108197
    17  H    6.897445   2.156814   3.313610   3.493582   2.783262
    18  C    4.933066   2.325531   4.906811   5.788955   2.550745
    19  H    5.931390   2.511175   5.760171   6.583284   3.434393
    20  H    4.880244   2.874836   5.349327   6.249084   3.058907
    21  H    4.279998   3.210232   4.960137   5.901289   2.741447
    22  C    2.347701   7.413304   4.457838   5.040689   5.101466
    23  H    3.173590   7.437452   4.268590   4.716308   5.199179
    24  H    2.954951   7.946929   4.658683   5.131945   5.575149
    25  H    2.423857   8.089381   5.464715   6.088956   5.846841
    26  C    4.368225   6.475078   2.383895   2.448701   4.308377
    27  H    4.163544   7.221494   3.237248   3.381414   4.940336
    28  H    4.664250   6.851634   2.969813   2.972606   4.781007
    29  H    5.354850   6.672701   2.440917   2.077822   4.689321
                    6          7          8          9         10
     6  C    0.000000
     7  C    2.438907   0.000000
     8  C    4.265594   2.437257   0.000000
     9  C    2.482723   2.480068   2.535348   0.000000
    10  H    3.090871   3.104211   2.917305   1.096874   0.000000
    11  H    3.274139   3.285643   2.718971   1.089115   1.738309
    12  C    1.355713   2.826846   3.841322   1.510984   2.136797
    13  C    2.511155   4.273388   4.965084   2.484113   2.834322
    14  C    3.707109   1.486484   3.007644   3.904335   4.447014
    15  H    3.906319   2.142861   3.974582   4.567744   4.998283
    16  H    4.122601   2.142178   3.450731   4.447376   5.163900
    17  H    4.559502   2.163556   2.734041   4.249171   4.641660
    18  C    5.190515   3.798214   1.498861   2.927411   3.015579
    19  H    6.165508   4.558856   2.171975   3.947501   3.889449
    20  H    5.496338   4.312795   2.145306   3.251713   3.552210
    21  H    5.030810   4.053589   2.177550   2.602051   2.352946
    22  C    3.097822   5.301200   6.336719   3.912980   4.289794
    23  H    2.980849   5.203032   6.469242   4.244481   4.829264
    24  H    3.308193   5.648388   6.879230   4.408625   4.597548
    25  H    4.123420   6.201753   6.967886   4.557013   4.883251
    26  C    1.498196   3.707155   5.736751   3.924557   4.442998
    27  H    2.158914   4.513894   6.372294   4.278512   4.602867
    28  H    2.146415   4.195664   6.156488   4.427307   5.113871
    29  H    2.133774   3.817125   6.087471   4.579558   5.033932
                   11         12         13         14         15
    11  H    0.000000
    12  C    2.118213   0.000000
    13  C    2.588271   1.457149   0.000000
    14  C    4.627219   4.293239   5.740342   0.000000
    15  H    5.418687   4.734810   6.180842   1.092459   0.000000
    16  H    5.008130   4.740740   6.130734   1.091883   1.761440
    17  H    4.901364   4.943794   6.373265   1.087495   1.746424
    18  C    2.679411   4.412849   5.204003   4.500019   5.436544
    19  H    3.752471   5.446401   6.252109   5.014419   5.919471
    20  H    2.654393   4.621379   5.234945   5.057700   6.068489
    21  H    2.365781   4.090336   4.704328   4.984986   5.814865
    22  C    4.026497   2.607464   1.508329   6.688304   6.996938
    23  H    4.378866   2.848381   2.178656   6.478256   6.763264
    24  H    4.715169   3.055478   2.149777   7.002022   7.160381
    25  H    4.443610   3.447863   2.106440   7.614068   7.993944
    26  C    4.633347   2.571886   3.154670   4.721781   4.662938
    27  H    4.954551   2.846800   3.005503   5.624192   5.540843
    28  H    4.952756   3.053850   3.442966   5.134217   5.159594
    29  H    5.407491   3.404166   4.168302   4.547739   4.244887
                   16         17         18         19         20
    16  H    0.000000
    17  H    1.741443   0.000000
    18  C    4.929235   4.150798   0.000000
    19  H    5.458021   4.444827   1.090091   0.000000
    20  H    5.291885   4.815326   1.094128   1.750907   0.000000
    21  H    5.552254   4.733129   1.089777   1.745592   1.743696
    22  C    6.977537   7.461398   6.671632   7.732932   6.642010
    23  H    6.620716   7.346646   6.977670   8.058612   6.897030
    24  H    7.394365   7.788523   7.266041   8.292659   7.368975
    25  H    7.868479   8.343209   7.113364   8.167446   6.963196
    26  C    5.019499   5.687457   6.685611   7.663516   6.952202
    27  H    6.017581   6.528926   7.166035   8.149972   7.445804
    28  H    5.209335   6.153020   7.105442   8.121094   7.223051
    29  H    4.869126   5.539684   7.182007   8.089895   7.552481
                   21         22         23         24         25
    21  H    0.000000
    22  C    6.208898   0.000000
    23  H    6.670544   1.086760   0.000000
    24  H    6.726743   1.090950   1.762700   0.000000
    25  H    6.600317   1.087286   1.775249   1.762538   0.000000
    26  C    6.500422   3.005636   2.621088   2.919826   4.076276
    27  H    6.825097   2.570842   2.435509   2.130339   3.606760
    28  H    7.009605   3.018650   2.268867   3.153109   3.980721
    29  H    7.058015   4.062805   3.667663   3.842697   5.132779
                   26         27         28         29
    26  C    0.000000
    27  H    1.083737   0.000000
    28  H    1.090502   1.763013   0.000000
    29  H    1.089188   1.750083   1.755993   0.000000
 Stoichiometry    C11H15NO2
 Framework group  C1[X(C11H15NO2)]
 Deg. of freedom    81
 Full point group                 C1      NOp   1
 Largest Abelian subgroup         C1      NOp   1
 Largest concise Abelian subgroup C1      NOp   1
                         Standard orientation:                         
 ---------------------------------------------------------------------
 Center     Atomic      Atomic             Coordinates (Angstroms)
 Number     Number       Type             X           Y           Z
 ---------------------------------------------------------------------
      1          8           0       -2.273996   -2.297526   -0.134004
      2          8           0        3.633790   -0.221207    0.353875
      3          7           0       -0.045953    1.800141   -0.190966
      4          1           0       -0.080381    2.806329   -0.193261
      5          6           0        1.289882   -0.139426   -0.062335
      6          6           0       -1.239874    1.134666   -0.110547
      7          6           0        1.197274    1.213972   -0.062688
      8          6           0        2.553721   -0.804662    0.096647
      9          6           0        0.055546   -0.974716   -0.301093
     10          1           0        0.069406   -1.392877   -1.315036
     11          1           0        0.052282   -1.835753    0.365823
     12          6           0       -1.238046   -0.220979   -0.097199
     13          6           0       -2.403019   -1.086010    0.036380
     14          6           0        2.308670    2.192815    0.064980
     15          1           0        2.113034    3.097793   -0.514854
     16          1           0        2.457742    2.494445    1.103731
     17          1           0        3.266520    1.808186   -0.277410
     18          6           0        2.658469   -2.291924   -0.057187
     19          1           0        3.643065   -2.619192   -0.391498
     20          1           0        2.470283   -2.793381    0.896879
     21          1           0        1.939617   -2.709229   -0.761972
     22          6           0       -3.770918   -0.573339    0.411984
     23          1           0       -3.745145    0.181433    1.193458
     24          1           0       -4.271268   -0.143873   -0.457143
     25          1           0       -4.355643   -1.425449    0.749914
     26          6           0       -2.410202    2.067638   -0.043580
     27          1           0       -3.252271    1.718955   -0.629947
     28          1           0       -2.742266    2.206008    0.985878
     29          1           0       -2.130683    3.047274   -0.428954
 ---------------------------------------------------------------------
 Rotational constants (GHZ):           1.0922743           0.4862084           0.3434431
 Leave Link  202 at Sat Jan 24 16:18:51 2026, MaxMem=  2147483648 cpu:               0.0 elap:               0.0
 (Enter /data/home/wyx/g16/l301.exe)
 Standard basis: TZVP (5D, 7F)
 Ernie: Thresh=  0.10000D-02 Tol=  0.10000D-05 Strict=F.
 There are   370 symmetry adapted cartesian basis functions of A   symmetry.
 There are   356 symmetry adapted basis functions of A   symmetry.
   356 basis functions,   610 primitive gaussians,   370 cartesian basis functions
    52 alpha electrons       52 beta electrons
       nuclear repulsion energy       900.0608270914 Hartrees.
 IExCor=20419 DFT=T Ex+Corr=CAM-B3LYP ExCW=0 ScaHFX=  1.000000
 ScaDFX=  1.000000  1.000000  1.000000  0.810000 ScalE2=  1.000000  1.000000
 IRadAn=      5 IRanWt=     -1 IRanGd=            0 ICorTp=0 IEmpDi=141
 HFx  wShort=  0.000000 wLong=  0.330000 cFull=  0.190000 cShort=  0.000000 cLong=  0.460000
 DFx  wShort=  0.000000 wLong=  0.330000 cFull=  0.190000 cShort=  0.000000 cLong=  0.460000
 NAtoms=   29 NActive=   29 NUniq=   29 SFac= 1.00D+00 NAtFMM=   60 NAOKFM=F Big=F
 Integral buffers will be    131072 words long.
 Raffenetti 1 integral format.
 Two-electron integral symmetry is turned on.
 R6Disp:  Grimme-D3(BJ) Dispersion energy=       -0.0261476393 Hartrees.
 Nuclear repulsion after empirical dispersion term =      900.0346794521 Hartrees.
 ------------------------------------------------------------------------------
 Polarizable Continuum Model (PCM)
 =================================
 Model                : PCM.
 Atomic radii         : UFF (Universal Force Field).
 Polarization charges : Total charges.
 Charge compensation  : None.
 Solution method      : On-the-fly selection.
 Cavity type          : Scaled VdW (van der Waals Surface) (Alpha=1.100).
 Cavity algorithm     : GePol (No added spheres)
                        Default sphere list used, NSphG=   29.
                        Lebedev-Laikov grids with approx.  5.0 points / Ang**2.
                        Smoothing algorithm: York/Karplus (Gamma=1.0000).
                        Polarization charges: spherical gaussians, with
                                              point-specific exponents (IZeta= 3).
                        Self-potential: point-specific (ISelfS= 7).
                        Self-field    : sphere-specific E.n sum rule (ISelfD= 2).
 Solvent              : Water, Eps=  78.355300 Eps(inf)=   1.777849
 ------------------------------------------------------------------------------
 GePol: Number of generator spheres                  =      29
 GePol: Total number of spheres                      =      29
 GePol: Number of exposed spheres                    =      29 (100.00%)
 GePol: Number of points                             =    2093
 GePol: Average weight of points                     =       0.13
 GePol: Minimum weight of points                     =   0.58D-09
 GePol: Maximum weight of points                     =    0.20577
 GePol: Number of points with low weight             =     119
 GePol: Fraction of low-weight points (<1% of avg)   =       5.69%
 GePol: Cavity surface area                          =    269.245 Ang**2
 GePol: Cavity volume                                =    286.599 Ang**3
 Leave Link  301 at Sat Jan 24 16:18:51 2026, MaxMem=  2147483648 cpu:               0.6 elap:               0.0
 (Enter /data/home/wyx/g16/l302.exe)
 NPDir=0 NMtPBC=     1 NCelOv=     1 NCel=       1 NClECP=     1 NCelD=      1
         NCelK=      1 NCelE2=     1 NClLst=     1 CellRange=     0.0.
 One-electron integrals computed using PRISM.
 One-electron integral symmetry used in STVInt
 NBasis=   356 RedAO= T EigKep=  4.28D-05  NBF=   356
 NBsUse=   356 1.00D-06 EigRej= -1.00D+00 NBFU=   356
 Precomputing XC quadrature grid using
 IXCGrd= 4 IRadAn=           5 IRanWt=          -1 IRanGd=           0 AccXCQ= 0.00D+00.
 Generated NRdTot=       0 NPtTot=           0 NUsed=           0 NTot=          32
 NSgBfM=   366   366   366   366   366 MxSgAt=    29 MxSgA2=    29.
 Leave Link  302 at Sat Jan 24 16:18:54 2026, MaxMem=  2147483648 cpu:               3.1 elap:               0.2
 (Enter /data/home/wyx/g16/l303.exe)
 DipDrv:  MaxL=1.
 Leave Link  303 at Sat Jan 24 16:18:54 2026, MaxMem=  2147483648 cpu:               0.6 elap:               0.1
 (Enter /data/home/wyx/g16/l308.exe)
 Leave Link  308 at Sat Jan 24 16:18:56 2026, MaxMem=  2147483648 cpu:               0.7 elap:               0.1
 (Enter /data/home/wyx/g16/l401.exe)
 ExpMin= 9.52D-02 ExpMax= 2.70D+04 ExpMxC= 9.22D+02 IAcc=3 IRadAn=         5 AccDes= 0.00D+00
 Harris functional with IExCor=20419 and IRadAn=       5 diagonalized for initial guess.
 HarFok:  IExCor=20419 AccDes= 0.00D+00 IRadAn=         5 IDoV= 1 UseB2=F ITyADJ=14
 ICtDFT=  3500011 ScaDFX=  1.000000  1.000000  1.000000  1.000000
 FoFCou: FMM=F IPFlag=           0 FMFlag=      100000 FMFlg1=           0
         NFxFlg=           0 DoJE=T BraDBF=F KetDBF=T FulRan=T
         wScrn=  0.000000 ICntrl=       500 IOpCl=  0 I1Cent=   200000004 NGrid=           0
         NMat0=    1 NMatS0=      1 NMatT0=    0 NMatD0=    1 NMtDS0=    0 NMtDT0=    0
 Petite list used in FoFCou.
 Harris En= -608.711805236183    
 JPrj=0 DoOrth=F DoCkMO=F.
 Leave Link  401 at Sat Jan 24 16:18:57 2026, MaxMem=  2147483648 cpu:              11.8 elap:               0.8
 (Enter /data/home/wyx/g16/l502.exe)
 Integral symmetry usage will be decided dynamically.
 Closed shell SCF:
 Using DIIS extrapolation, IDIIS=  1040.
 NGot=  2147483648 LenX=  2147200095 LenY=  2147062754
 Requested convergence on RMS density matrix=1.00D-08 within 128 cycles.
 Requested convergence on MAX density matrix=1.00D-06.
 Requested convergence on             energy=1.00D-06.
 No special actions if energy rises.
 Fock matrices will be formed incrementally for  20 cycles.

 Cycle   1  Pass 1  IDiag  1:
 FoFJK:  IHMeth= 1 ICntrl=       0 DoSepK=T KAlg= 0 I1Cent=           0 FoldK=F
 IRaf=         1 NMat=       1 IRICut=       1 DoRegI=T DoRafI=F ISym2E= 0 IDoP0=0 IntGTp=1.
 FoFCou: FMM=F IPFlag=           0 FMFlag=      100000 FMFlg1=           0
         NFxFlg=           0 DoJE=T BraDBF=F KetDBF=F FulRan=T
         wScrn=  0.000000 ICntrl=       500 IOpCl=  0 I1Cent=           0 NGrid=           0
         NMat0=    1 NMatS0=      1 NMatT0=    0 NMatD0=    1 NMtDS0=    0 NMtDT0=    0
 Symmetry not used in FoFCou.
 Inv3:  Mode=1 IEnd=    13141947.
 Iteration    1 A*A^-1 deviation from unit magnitude is 3.33D-15 for   1640.
 Iteration    1 A*A^-1 deviation from orthogonality  is 1.56D-15 for   1281    442.
 Iteration    1 A^-1*A deviation from unit magnitude is 3.11D-15 for   1640.
 Iteration    1 A^-1*A deviation from orthogonality  is 1.97D-15 for   1314    388.
 E= -633.131049244424    
 DIIS: error= 4.18D-02 at cycle   1 NSaved=   1.
 NSaved= 1 IEnMin= 1 EnMin= -633.131049244424     IErMin= 1 ErrMin= 4.18D-02
 ErrMax= 4.18D-02  0.00D+00 EMaxC= 1.00D-01 BMatC= 1.09D+00 BMatP= 1.09D+00
 IDIUse=3 WtCom= 5.82D-01 WtEn= 4.18D-01
 Coeff-Com:  0.100D+01
 Coeff-En:   0.100D+01
 Coeff:      0.100D+01
 Gap=     0.228 Goal=   None    Shift=    0.000
 GapD=    0.228 DampG=1.000 DampE=0.500 DampFc=0.5000 IDamp=-1.
 Damping current iteration by 5.00D-01
 RMSDP=4.09D-03 MaxDP=1.63D-01              OVMax= 1.40D-01

 Cycle   2  Pass 1  IDiag  1:
 RMSU=  1.77D-03    CP:  9.27D-01
 E= -633.226492983934     Delta-E=       -0.095443739510 Rises=F Damp=T
 DIIS: error= 1.92D-02 at cycle   2 NSaved=   2.
 NSaved= 2 IEnMin= 2 EnMin= -633.226492983934     IErMin= 2 ErrMin= 1.92D-02
 ErrMax= 1.92D-02  0.00D+00 EMaxC= 1.00D-01 BMatC= 2.23D-01 BMatP= 1.09D+00
 IDIUse=3 WtCom= 8.08D-01 WtEn= 1.92D-01
 Coeff-Com: -0.596D+00 0.160D+01
 Coeff-En:   0.000D+00 0.100D+01
 Coeff:     -0.482D+00 0.148D+01
 Gap=     0.241 Goal=   None    Shift=    0.000
 RMSDP=1.45D-03 MaxDP=4.44D-02 DE=-9.54D-02 OVMax= 1.32D-01

 Cycle   3  Pass 1  IDiag  1:
 RMSU=  1.36D-03    CP:  9.05D-01  1.24D+00
 E= -633.276309754078     Delta-E=       -0.049816770144 Rises=F Damp=F
 DIIS: error= 1.10D-02 at cycle   3 NSaved=   3.
 NSaved= 3 IEnMin= 3 EnMin= -633.276309754078     IErMin= 3 ErrMin= 1.10D-02
 ErrMax= 1.10D-02  0.00D+00 EMaxC= 1.00D-01 BMatC= 6.23D-02 BMatP= 2.23D-01
 IDIUse=3 WtCom= 8.90D-01 WtEn= 1.10D-01
 Coeff-Com: -0.363D+00 0.795D+00 0.568D+00
 Coeff-En:   0.000D+00 0.000D+00 0.100D+01
 Coeff:     -0.323D+00 0.708D+00 0.615D+00
 Gap=     0.238 Goal=   None    Shift=    0.000
 RMSDP=1.41D-03 MaxDP=7.13D-02 DE=-4.98D-02 OVMax= 7.30D-02

 Cycle   4  Pass 1  IDiag  1:
 RMSU=  5.08D-04    CP:  8.53D-01  1.74D+00  5.23D-01
 E= -633.322989087393     Delta-E=       -0.046679333315 Rises=F Damp=F
 DIIS: error= 3.88D-03 at cycle   4 NSaved=   4.
 NSaved= 4 IEnMin= 4 EnMin= -633.322989087393     IErMin= 4 ErrMin= 3.88D-03
 ErrMax= 3.88D-03  0.00D+00 EMaxC= 1.00D-01 BMatC= 6.29D-03 BMatP= 6.23D-02
 IDIUse=3 WtCom= 9.61D-01 WtEn= 3.88D-02
 Coeff-Com: -0.169D+00 0.366D+00 0.357D+00 0.446D+00
 Coeff-En:   0.000D+00 0.000D+00 0.733D-03 0.999D+00
 Coeff:     -0.162D+00 0.352D+00 0.343D+00 0.468D+00
 Gap=     0.234 Goal=   None    Shift=    0.000
 RMSDP=3.44D-04 MaxDP=2.05D-02 DE=-4.67D-02 OVMax= 1.39D-02

 Cycle   5  Pass 1  IDiag  1:
 RMSU=  9.69D-05    CP:  8.65D-01  1.67D+00  6.56D-01  6.51D-01
 E= -633.327726023271     Delta-E=       -0.004736935878 Rises=F Damp=F
 DIIS: error= 4.21D-04 at cycle   5 NSaved=   5.
 NSaved= 5 IEnMin= 5 EnMin= -633.327726023271     IErMin= 5 ErrMin= 4.21D-04
 ErrMax= 4.21D-04  0.00D+00 EMaxC= 1.00D-01 BMatC= 7.31D-05 BMatP= 6.29D-03
 IDIUse=3 WtCom= 9.96D-01 WtEn= 4.21D-03
 Coeff-Com: -0.337D-01 0.720D-01 0.812D-01 0.159D+00 0.722D+00
 Coeff-En:   0.000D+00 0.000D+00 0.000D+00 0.000D+00 0.100D+01
 Coeff:     -0.335D-01 0.717D-01 0.809D-01 0.158D+00 0.723D+00
 Gap=     0.234 Goal=   None    Shift=    0.000
 RMSDP=1.21D-04 MaxDP=6.19D-03 DE=-4.74D-03 OVMax= 2.07D-03

 Cycle   6  Pass 1  IDiag  1:
 RMSU=  4.88D-05    CP:  8.60D-01  1.70D+00  6.57D-01  7.79D-01  1.09D+00
 E= -633.327770396091     Delta-E=       -0.000044372820 Rises=F Damp=F
 DIIS: error= 3.95D-04 at cycle   6 NSaved=   6.
 NSaved= 6 IEnMin= 6 EnMin= -633.327770396091     IErMin= 6 ErrMin= 3.95D-04
 ErrMax= 3.95D-04  0.00D+00 EMaxC= 1.00D-01 BMatC= 2.40D-05 BMatP= 7.31D-05
 IDIUse=3 WtCom= 9.96D-01 WtEn= 3.95D-03
 Coeff-Com:  0.176D-01-0.384D-01-0.302D-01-0.976D-02 0.421D+00 0.640D+00
 Coeff-En:   0.000D+00 0.000D+00 0.000D+00 0.000D+00 0.138D+00 0.862D+00
 Coeff:      0.175D-01-0.382D-01-0.300D-01-0.972D-02 0.420D+00 0.641D+00
 Gap=     0.234 Goal=   None    Shift=    0.000
 RMSDP=2.68D-05 MaxDP=1.37D-03 DE=-4.44D-05 OVMax= 2.93D-03

 Cycle   7  Pass 1  IDiag  1:
 RMSU=  1.87D-05    CP:  8.60D-01  1.70D+00  6.61D-01  7.77D-01  1.23D+00
                    CP:  7.81D-01
 E= -633.327793286397     Delta-E=       -0.000022890306 Rises=F Damp=F
 DIIS: error= 3.54D-05 at cycle   7 NSaved=   7.
 NSaved= 7 IEnMin= 7 EnMin= -633.327793286397     IErMin= 7 ErrMin= 3.54D-05
 ErrMax= 3.54D-05  0.00D+00 EMaxC= 1.00D-01 BMatC= 7.97D-07 BMatP= 2.40D-05
 IDIUse=1 WtCom= 1.00D+00 WtEn= 0.00D+00
 Coeff-Com:  0.386D-02-0.829D-02-0.733D-02-0.109D-01-0.858D-02 0.135D+00
 Coeff-Com:  0.896D+00
 Coeff:      0.386D-02-0.829D-02-0.733D-02-0.109D-01-0.858D-02 0.135D+00
 Coeff:      0.896D+00
 Gap=     0.235 Goal=   None    Shift=    0.000
 RMSDP=1.62D-05 MaxDP=7.22D-04 DE=-2.29D-05 OVMax= 6.62D-04

 Cycle   8  Pass 1  IDiag  1:
 RMSU=  5.37D-06    CP:  8.60D-01  1.70D+00  6.61D-01  7.94D-01  1.28D+00
                    CP:  9.13D-01  1.07D+00
 E= -633.327794557280     Delta-E=       -0.000001270883 Rises=F Damp=F
 DIIS: error= 2.09D-05 at cycle   8 NSaved=   8.
 NSaved= 8 IEnMin= 8 EnMin= -633.327794557280     IErMin= 8 ErrMin= 2.09D-05
 ErrMax= 2.09D-05  0.00D+00 EMaxC= 1.00D-01 BMatC= 1.20D-07 BMatP= 7.97D-07
 IDIUse=1 WtCom= 1.00D+00 WtEn= 0.00D+00
 Coeff-Com: -0.453D-03 0.105D-02 0.501D-03-0.412D-02-0.627D-01-0.155D-01
 Coeff-Com:  0.328D+00 0.753D+00
 Coeff:     -0.453D-03 0.105D-02 0.501D-03-0.412D-02-0.627D-01-0.155D-01
 Coeff:      0.328D+00 0.753D+00
 Gap=     0.235 Goal=   None    Shift=    0.000
 RMSDP=5.07D-06 MaxDP=3.09D-04 DE=-1.27D-06 OVMax= 3.66D-04

 Cycle   9  Pass 1  IDiag  1:
 RMSU=  1.87D-06    CP:  8.60D-01  1.71D+00  6.61D-01  7.98D-01  1.30D+00
                    CP:  9.44D-01  1.18D+00  1.12D+00
 E= -633.327794748652     Delta-E=       -0.000000191372 Rises=F Damp=F
 DIIS: error= 6.30D-06 at cycle   9 NSaved=   9.
 NSaved= 9 IEnMin= 9 EnMin= -633.327794748652     IErMin= 9 ErrMin= 6.30D-06
 ErrMax= 6.30D-06  0.00D+00 EMaxC= 1.00D-01 BMatC= 2.23D-08 BMatP= 1.20D-07
 IDIUse=1 WtCom= 1.00D+00 WtEn= 0.00D+00
 Coeff-Com: -0.858D-03 0.187D-02 0.156D-02 0.788D-04-0.256D-01-0.215D-01
 Coeff-Com: -0.107D-01 0.322D+00 0.733D+00
 Coeff:     -0.858D-03 0.187D-02 0.156D-02 0.788D-04-0.256D-01-0.215D-01
 Coeff:     -0.107D-01 0.322D+00 0.733D+00
 Gap=     0.235 Goal=   None    Shift=    0.000
 RMSDP=1.85D-06 MaxDP=8.63D-05 DE=-1.91D-07 OVMax= 1.21D-04

 Cycle  10  Pass 1  IDiag  1:
 RMSU=  8.03D-07    CP:  8.60D-01  1.71D+00  6.61D-01  8.00D-01  1.30D+00
                    CP:  9.60D-01  1.21D+00  1.28D+00  9.07D-01
 E= -633.327794776118     Delta-E=       -0.000000027466 Rises=F Damp=F
 DIIS: error= 3.18D-06 at cycle  10 NSaved=  10.
 NSaved=10 IEnMin=10 EnMin= -633.327794776118     IErMin=10 ErrMin= 3.18D-06
 ErrMax= 3.18D-06  0.00D+00 EMaxC= 1.00D-01 BMatC= 3.82D-09 BMatP= 2.23D-08
 IDIUse=1 WtCom= 1.00D+00 WtEn= 0.00D+00
 Coeff-Com: -0.414D-03 0.896D-03 0.806D-03 0.521D-03-0.661D-02-0.857D-02
 Coeff-Com: -0.486D-01 0.822D-01 0.375D+00 0.605D+00
 Coeff:     -0.414D-03 0.896D-03 0.806D-03 0.521D-03-0.661D-02-0.857D-02
 Coeff:     -0.486D-01 0.822D-01 0.375D+00 0.605D+00
 Gap=     0.235 Goal=   None    Shift=    0.000
 RMSDP=6.66D-07 MaxDP=3.92D-05 DE=-2.75D-08 OVMax= 3.09D-05

 Cycle  11  Pass 1  IDiag  1:
 RMSU=  2.53D-07    CP:  8.60D-01  1.71D+00  6.61D-01  8.00D-01  1.31D+00
                    CP:  9.65D-01  1.22D+00  1.30D+00  1.08D+00  9.35D-01
 E= -633.327794779922     Delta-E=       -0.000000003804 Rises=F Damp=F
 DIIS: error= 1.06D-06 at cycle  11 NSaved=  11.
 NSaved=11 IEnMin=11 EnMin= -633.327794779922     IErMin=11 ErrMin= 1.06D-06
 ErrMax= 1.06D-06  0.00D+00 EMaxC= 1.00D-01 BMatC= 3.77D-10 BMatP= 3.82D-09
 IDIUse=1 WtCom= 1.00D+00 WtEn= 0.00D+00
 Coeff-Com:  0.232D-04-0.534D-04-0.185D-04 0.123D-03 0.225D-02 0.171D-02
 Coeff-Com: -0.172D-01-0.273D-01-0.264D-02 0.243D+00 0.800D+00
 Coeff:      0.232D-04-0.534D-04-0.185D-04 0.123D-03 0.225D-02 0.171D-02
 Coeff:     -0.172D-01-0.273D-01-0.264D-02 0.243D+00 0.800D+00
 Gap=     0.235 Goal=   None    Shift=    0.000
 RMSDP=2.52D-07 MaxDP=1.60D-05 DE=-3.80D-09 OVMax= 1.62D-05

 Cycle  12  Pass 1  IDiag  1:
 RMSU=  1.17D-07    CP:  8.60D-01  1.71D+00  6.61D-01  8.01D-01  1.31D+00
                    CP:  9.66D-01  1.22D+00  1.33D+00  1.07D+00  1.05D+00
                    CP:  9.80D-01
 E= -633.327794780439     Delta-E=       -0.000000000517 Rises=F Damp=F
 DIIS: error= 2.53D-07 at cycle  12 NSaved=  12.
 NSaved=12 IEnMin=12 EnMin= -633.327794780439     IErMin=12 ErrMin= 2.53D-07
 ErrMax= 2.53D-07  0.00D+00 EMaxC= 1.00D-01 BMatC= 3.29D-11 BMatP= 3.77D-10
 IDIUse=1 WtCom= 1.00D+00 WtEn= 0.00D+00
 Coeff-Com:  0.293D-04-0.647D-04-0.463D-04 0.269D-04 0.126D-02 0.116D-02
 Coeff-Com: -0.365D-02-0.146D-01-0.295D-01 0.463D-01 0.307D+00 0.693D+00
 Coeff:      0.293D-04-0.647D-04-0.463D-04 0.269D-04 0.126D-02 0.116D-02
 Coeff:     -0.365D-02-0.146D-01-0.295D-01 0.463D-01 0.307D+00 0.693D+00
 Gap=     0.235 Goal=   None    Shift=    0.000
 RMSDP=5.36D-08 MaxDP=1.76D-06 DE=-5.17D-10 OVMax= 3.38D-06

 Cycle  13  Pass 1  IDiag  1:
 RMSU=  2.55D-08    CP:  8.60D-01  1.71D+00  6.61D-01  8.01D-01  1.31D+00
                    CP:  9.66D-01  1.22D+00  1.33D+00  1.08D+00  1.07D+00
                    CP:  1.06D+00  1.08D+00
 E= -633.327794780487     Delta-E=       -0.000000000049 Rises=F Damp=F
 DIIS: error= 1.20D-07 at cycle  13 NSaved=  13.
 NSaved=13 IEnMin=13 EnMin= -633.327794780487     IErMin=13 ErrMin= 1.20D-07
 ErrMax= 1.20D-07  0.00D+00 EMaxC= 1.00D-01 BMatC= 3.61D-12 BMatP= 3.29D-11
 IDIUse=1 WtCom= 1.00D+00 WtEn= 0.00D+00
 Coeff-Com:  0.496D-05-0.104D-04-0.119D-04-0.184D-04-0.769D-04 0.903D-05
 Coeff-Com:  0.221D-02 0.190D-02-0.928D-02-0.323D-01-0.608D-01 0.174D+00
 Coeff-Com:  0.924D+00
 Coeff:      0.496D-05-0.104D-04-0.119D-04-0.184D-04-0.769D-04 0.903D-05
 Coeff:      0.221D-02 0.190D-02-0.928D-02-0.323D-01-0.608D-01 0.174D+00
 Coeff:      0.924D+00
 Gap=     0.235 Goal=   None    Shift=    0.000
 RMSDP=3.25D-08 MaxDP=1.14D-06 DE=-4.85D-11 OVMax= 2.83D-06

 Cycle  14  Pass 1  IDiag  1:
 RMSU=  1.55D-08    CP:  8.60D-01  1.71D+00  6.61D-01  8.01D-01  1.31D+00
                    CP:  9.66D-01  1.22D+00  1.33D+00  1.08D+00  1.09D+00
                    CP:  1.09D+00  1.25D+00  1.23D+00
 E= -633.327794780508     Delta-E=       -0.000000000020 Rises=F Damp=F
 DIIS: error= 5.78D-08 at cycle  14 NSaved=  14.
 NSaved=14 IEnMin=14 EnMin= -633.327794780508     IErMin=14 ErrMin= 5.78D-08
 ErrMax= 5.78D-08  0.00D+00 EMaxC= 1.00D-01 BMatC= 3.48D-13 BMatP= 3.61D-12
 IDIUse=1 WtCom= 1.00D+00 WtEn= 0.00D+00
 Coeff-Com: -0.240D-05 0.537D-05 0.361D-05-0.398D-05-0.130D-03-0.104D-03
 Coeff-Com:  0.526D-03 0.176D-02 0.227D-02-0.594D-02-0.368D-01-0.693D-01
 Coeff-Com:  0.215D-01 0.109D+01
 Coeff:     -0.240D-05 0.537D-05 0.361D-05-0.398D-05-0.130D-03-0.104D-03
 Coeff:      0.526D-03 0.176D-02 0.227D-02-0.594D-02-0.368D-01-0.693D-01
 Coeff:      0.215D-01 0.109D+01
 Gap=     0.235 Goal=   None    Shift=    0.000
 RMSDP=1.34D-08 MaxDP=5.83D-07 DE=-2.03D-11 OVMax= 1.50D-06

 Cycle  15  Pass 1  IDiag  1:
 RMSU=  5.08D-09    CP:  8.60D-01  1.71D+00  6.61D-01  8.01D-01  1.31D+00
                    CP:  9.66D-01  1.22D+00  1.33D+00  1.08D+00  1.09D+00
                    CP:  1.09D+00  1.32D+00  1.45D+00  1.35D+00
 E= -633.327794780508     Delta-E=       -0.000000000000 Rises=F Damp=F
 DIIS: error= 1.64D-08 at cycle  15 NSaved=  15.
 NSaved=15 IEnMin=15 EnMin= -633.327794780508     IErMin=15 ErrMin= 1.64D-08
 ErrMax= 1.64D-08  0.00D+00 EMaxC= 1.00D-01 BMatC= 1.02D-13 BMatP= 3.48D-13
 IDIUse=1 WtCom= 1.00D+00 WtEn= 0.00D+00
 Coeff-Com: -0.158D-05 0.340D-05 0.305D-05 0.129D-05-0.335D-04-0.462D-04
 Coeff-Com: -0.183D-03 0.206D-03 0.216D-02 0.339D-02-0.370D-02-0.484D-01
 Coeff-Com: -0.148D+00 0.369D+00 0.825D+00
 Coeff:     -0.158D-05 0.340D-05 0.305D-05 0.129D-05-0.335D-04-0.462D-04
 Coeff:     -0.183D-03 0.206D-03 0.216D-02 0.339D-02-0.370D-02-0.484D-01
 Coeff:     -0.148D+00 0.369D+00 0.825D+00
 Gap=     0.235 Goal=   None    Shift=    0.000
 RMSDP=5.44D-09 MaxDP=1.62D-07 DE=-1.14D-13 OVMax= 5.80D-07

 Error on total polarization charges =  0.01551
 SCF Done:  E(RCAM-B3LYP) =  -633.327794781     A.U. after   15 cycles
            NFock= 15  Conv=0.54D-08     -V/T= 2.0042
 KE= 6.306837868512D+02 PE=-3.276096087182D+03 EE= 1.112049826098D+03
 Leave Link  502 at Sat Jan 24 16:19:56 2026, MaxMem=  2147483648 cpu:             941.0 elap:              59.3
 (Enter /data/home/wyx/g16/l801.exe)
 DoSCS=F DFT=T ScalE2(SS,OS)=  1.000000  1.000000
 ExpMin= 9.52D-02 ExpMax= 2.70D+04 ExpMxC= 9.22D+02 IAcc=3 IRadAn=         5 AccDes= 0.00D+00
 HarFok:  IExCor=  205 AccDes= 0.00D+00 IRadAn=         5 IDoV=-2 UseB2=F ITyADJ=14
 ICtDFT= 12500011 ScaDFX=  1.000000  1.000000  1.000000  1.000000
 Largest valence mixing into a core orbital is  5.64D-05
 Largest core mixing into a valence orbital is  1.17D-05
 Range of M.O.s used for correlation:    15   356
 NBasis=   356 NAE=    52 NBE=    52 NFC=    14 NFV=     0
 NROrb=    342 NOA=    38 NOB=    38 NVA=   304 NVB=   304

 **** Warning!!: The largest alpha MO coefficient is  0.36503375D+02

 Leave Link  801 at Sat Jan 24 16:19:56 2026, MaxMem=  2147483648 cpu:               1.0 elap:               0.1
 (Enter /data/home/wyx/g16/l914.exe)
 RHF ground state
 Two-electron integrals replicated using symmetry.
 MDV=  2147483648 DFT=T DoStab=F Mixed=T DoRPA=T DoScal=F NonHer=T
 NEqPCM:  Using non-equilibrium solvation (IEInf=1, Eps=  78.3553, EpsInf=   1.7778)
 Inv3:  Mode=1 IEnd=    13141947.
 Iteration    1 A*A^-1 deviation from unit magnitude is 4.22D-15 for    380.
 Iteration    1 A*A^-1 deviation from orthogonality  is 1.64D-15 for   1500    777.
 Iteration    1 A^-1*A deviation from unit magnitude is 4.00D-15 for    380.
 Iteration    1 A^-1*A deviation from orthogonality  is 1.85D-15 for   2002    792.
 Making orbital integer symmetry assigments:
 Orbital symmetries:
       Occupied  (A) (A) (A) (A) (A) (A) (A) (A) (A) (A) (A) (A)
                 (A) (A) (A) (A) (A) (A) (A) (A) (A) (A) (A) (A)
                 (A) (A) (A) (A) (A) (A) (A) (A) (A) (A) (A) (A)
                 (A) (A) (A) (A) (A) (A) (A) (A) (A) (A) (A) (A)
                 (A) (A) (A) (A)
       Virtual   (A) (A) (A) (A) (A) (A) (A) (A) (A) (A) (A) (A)
                 (A) (A) (A) (A) (A) (A) (A) (A) (A) (A) (A) (A)
                 (A) (A) (A) (A) (A) (A) (A) (A) (A) (A) (A) (A)
                 (A) (A) (A) (A) (A) (A) (A) (A) (A) (A) (A) (A)
                 (A) (A) (A) (A) (A) (A) (A) (A) (A) (A) (A) (A)
                 (A) (A) (A) (A) (A) (A) (A) (A) (A) (A) (A) (A)
                 (A) (A) (A) (A) (A) (A) (A) (A) (A) (A) (A) (A)
                 (A) (A) (A) (A) (A) (A) (A) (A) (A) (A) (A) (A)
                 (A) (A) (A) (A) (A) (A) (A) (A) (A) (A) (A) (A)
                 (A) (A) (A) (A) (A) (A) (A) (A) (A) (A) (A) (A)
                 (A) (A) (A) (A) (A) (A) (A) (A) (A) (A) (A) (A)
                 (A) (A) (A) (A) (A) (A) (A) (A) (A) (A) (A) (A)
                 (A) (A) (A) (A) (A) (A) (A) (A) (A) (A) (A) (A)
                 (A) (A) (A) (A) (A) (A) (A) (A) (A) (A) (A) (A)
                 (A) (A) (A) (A) (A) (A) (A) (A) (A) (A) (A) (A)
                 (A) (A) (A) (A) (A) (A) (A) (A) (A) (A) (A) (A)
                 (A) (A) (A) (A) (A) (A) (A) (A) (A) (A) (A) (A)
                 (A) (A) (A) (A) (A) (A) (A) (A) (A) (A) (A) (A)
                 (A) (A) (A) (A) (A) (A) (A) (A) (A) (A) (A) (A)
                 (A) (A) (A) (A) (A) (A) (A) (A) (A) (A) (A) (A)
                 (A) (A) (A) (A) (A) (A) (A) (A) (A) (A) (A) (A)
                 (A) (A) (A) (A) (A) (A) (A) (A) (A) (A) (A) (A)
                 (A) (A) (A) (A) (A) (A) (A) (A) (A) (A) (A) (A)
                 (A) (A) (A) (A) (A) (A) (A) (A) (A) (A) (A) (A)
                 (A) (A) (A) (A) (A) (A) (A) (A) (A) (A) (A) (A)
                 (A) (A) (A) (A)
    24 initial guesses have been made.
 Convergence on wavefunction:    0.001000000000000
 Davidson Disk Diagonalization:  ConvIn= 1.00D-03 SkipCon=T Conv= 1.00D-03.
 Max sub-space:  2000 roots to seek:    24 dimension of matrix:        23104
 Iteration     1 Dimension    24 NMult     0 NNew     24
 CISAX will form    24 AO SS matrices at one time.
 NMat=    24 NSing=    24 JSym2X= 0.
 FoFJK:  IHMeth= 1 ICntrl=       0 DoSepK=T KAlg= 0 I1Cent=           0 FoldK=F
 IRaf=         1 NMat=      48 IRICut=       1 DoRegI=T DoRafI=F ISym2E= 0 IDoP0=3 IntGTp=3.
 New state      3 was old state      4
 New state      4 was old state      3
 New state      5 was old state      6
 New state      6 was old state      5
 Excitation Energies [eV] at current iteration:
 Root      1 :     3.870571958829095
 Root      2 :     4.092401103953519
 Root      3 :     4.527131250760990
 Root      4 :     5.514657714019367
 Root      5 :     6.295563574833813
 Root      6 :     6.486322026232044
 Root      7 :     6.763325833683300
 Root      8 :     6.820495442236592
 Root      9 :     6.924996393694927
 Root     10 :     7.200659755540851
 Root     11 :     7.262108065920357
 Root     12 :     7.472129100649053
 Root     13 :     7.549907505309954
 Root     14 :     7.685200204902419
 Root     15 :     7.781753366438986
 Root     16 :     7.811323097732605
 Root     17 :     8.074922902714807
 Root     18 :     8.219826818019701
 Root     19 :     8.317131171223759
 Root     20 :     8.392778789754839
 Root     21 :     8.642601067079099
 Root     22 :     8.863874578638868
 Root     23 :     8.917157797300211
 Root     24 :     9.240167105646671
 Iteration     2 Dimension    36 NMult    24 NNew     12
 CISAX will form    12 AO SS matrices at one time.
 NMat=    12 NSing=    12 JSym2X= 0.
 Root      1 not converged, maximum delta is    0.125464819112430
 Root      2 not converged, maximum delta is    0.119529281439399
 Root      3 not converged, maximum delta is    0.093013655040747
 Root      4 not converged, maximum delta is    0.288705214338421
 New state      5 was old state      6
 Root      5 not converged, maximum delta is    0.343889919406785
 New state      6 was old state      5
 Root      6 not converged, maximum delta is    0.223084634743061
 Excitation Energies [eV] at current iteration:
 Root      1 :     3.442232342445698   Change is   -0.428339616383397
 Root      2 :     3.852112795344229   Change is   -0.240288308609290
 Root      3 :     4.269910625321362   Change is   -0.257220625439628
 Root      4 :     5.170861133569113   Change is   -0.343796580450254
 Root      5 :     5.610113796583232   Change is   -0.876208229648811
 Root      6 :     6.170534602831783   Change is   -0.125028972002030
 Iteration     3 Dimension    48 NMult    36 NNew     12
 CISAX will form    12 AO SS matrices at one time.
 NMat=    12 NSing=    12 JSym2X= 0.
 Root      1 not converged, maximum delta is    0.009568853437556
 Root      2 not converged, maximum delta is    0.010516004696255
 Root      3 not converged, maximum delta is    0.015833402097473
 Root      4 not converged, maximum delta is    0.023698914194133
 Root      5 not converged, maximum delta is    0.023988504787251
 Root      6 not converged, maximum delta is    0.015398052257395
 Excitation Energies [eV] at current iteration:
 Root      1 :     3.424601307353196   Change is   -0.017631035092502
 Root      2 :     3.840424212112351   Change is   -0.011688583231878
 Root      3 :     4.256381660682625   Change is   -0.013528964638736
 Root      4 :     5.148002863972326   Change is   -0.022858269596787
 Root      5 :     5.583752787358807   Change is   -0.026361009224425
 Root      6 :     6.158843317108105   Change is   -0.011691285723678
 Iteration     4 Dimension    60 NMult    48 NNew     12
 CISAX will form    12 AO SS matrices at one time.
 NMat=    12 NSing=    12 JSym2X= 0.
 Root      1 not converged, maximum delta is    0.002002610197033
 Root      2 not converged, maximum delta is    0.001741088524237
 Root      3 not converged, maximum delta is    0.002234420967033
 Root      4 not converged, maximum delta is    0.002634409476494
 Root      5 not converged, maximum delta is    0.003802675004771
 Root      6 not converged, maximum delta is    0.003786805911941
 Excitation Energies [eV] at current iteration:
 Root      1 :     3.423154416912340   Change is   -0.001446890440856
 Root      2 :     3.839537575090135   Change is   -0.000886637022216
 Root      3 :     4.255693529135224   Change is   -0.000688131547401
 Root      4 :     5.145740887913954   Change is   -0.002261976058372
 Root      5 :     5.580744039560417   Change is   -0.003008747798390
 Root      6 :     6.157948217396742   Change is   -0.000895099711364
 Iteration     5 Dimension    72 NMult    60 NNew     12
 CISAX will form    12 AO SS matrices at one time.
 NMat=    12 NSing=    12 JSym2X= 0.
 Root      1 has converged.
 Root      2 has converged.
 Root      3 has converged.
 Root      4 has converged.
 Root      5 not converged, maximum delta is    0.001036075908263
 Root      6 has converged.
 Excitation Energies [eV] at current iteration:
 Root      1 :     3.423068675192382   Change is   -0.000085741719958
 Root      2 :     3.839498065814968   Change is   -0.000039509275167
 Root      3 :     4.255656875198094   Change is   -0.000036653937131
 Root      4 :     5.145569803291613   Change is   -0.000171084622341
 Root      5 :     5.580465421086612   Change is   -0.000278618473806
 Root      6 :     6.157879414529864   Change is   -0.000068802866877
 Iteration     6 Dimension    74 NMult    72 NNew      2
 CISAX will form     2 AO SS matrices at one time.
 NMat=     2 NSing=     2 JSym2X= 0.
 Root      1 has converged.
 Root      2 has converged.
 Root      3 has converged.
 Root      4 has converged.
 Root      5 has converged.
 Root      6 has converged.
 Excitation Energies [eV] at current iteration:
 Root      1 :     3.423068624198182   Change is   -0.000000050994199
 Root      2 :     3.839498028006792   Change is   -0.000000037808175
 Root      3 :     4.255656727777236   Change is   -0.000000147420857
 Root      4 :     5.145562954256737   Change is   -0.000006849034877
 Root      5 :     5.580447545883009   Change is   -0.000017875203602
 Root      6 :     6.157879026933088   Change is   -0.000000387596776
 Convergence achieved on expansion vectors.
 ***********************************************************************
 Excited states from <AA,BB:AA,BB> singles matrix:
 ***********************************************************************
 
 1PDM for each excited state written to RWF  633
 Ground to excited state transition densities written to RWF  633
 Ground to excited state transition electric dipole moments (Au):
       state          X           Y           Z        Dip. S.      Osc.
         1        -1.5083     -0.0961     -0.0381      2.2856      0.1917
         2        -0.2532     -0.0310     -0.0477      0.0674      0.0063
         3         0.0077     -0.0947      0.0391      0.0106      0.0011
         4         0.0338     -1.3138      0.0995      1.7371      0.2190
         5        -0.1993      1.4454     -0.0416      2.1305      0.2913
         6        -0.0388      0.1681      0.0718      0.0349      0.0053
 Ground to excited state transition velocity dipole moments (Au):
       state          X           Y           Z        Dip. S.      Osc.
         1         0.1828      0.0096      0.0051      0.0335      0.1778
         2         0.0353      0.0035      0.0048      0.0013      0.0061
         3        -0.0012      0.0140     -0.0024      0.0002      0.0009
         4        -0.0098      0.2336     -0.0144      0.0549      0.1935
         5         0.0401     -0.2901      0.0083      0.0858      0.2790
         6         0.0099     -0.0341     -0.0357      0.0025      0.0075
 Ground to excited state transition magnetic dipole moments (Au):
       state          X           Y           Z
         1         0.1162      0.0314     -1.4133
         2        -0.7652     -0.2560     -0.4460
         3        -0.0283     -0.9547     -0.0882
         4         0.0401      0.0622     -0.2146
         5        -0.2199     -0.1140      0.2399
         6         0.0189     -0.0034     -0.0053
 Ground to excited state transition velocity quadrupole moments (Au):
       state          XX          YY          ZZ          XY          XZ          YZ
         1         0.2391     -0.1074     -0.0028     -0.4973      0.0540     -0.0069
         2         0.0405      0.0058     -0.0028     -0.1026      0.0394     -0.0593
         3        -0.0076      0.0064     -0.0197     -0.0292      0.0650      0.0052
         4        -1.1707      0.2272      0.0071     -0.1579     -0.0616     -0.0340
         5         0.8210     -0.3709     -0.0428      0.0553      0.0705     -0.0606
         6        -0.1766     -0.1670      0.1513     -0.0176     -0.0172      0.0772
 <0|del|b> * <b|rxdel|0> + <0|del|b> * <b|delr+rdel|0>
 Rotatory Strengths (R) in cgs (10**-40 erg-esu-cm/Gauss)
       state          XX          YY          ZZ    R(velocity)    E-M Angle
         1       -28.2667     42.8794     65.5663     26.7263       86.85
         2        -9.1662    -77.0958    -64.4042    -50.2220      155.54
         3       -31.5546      0.3842    -28.0061    -19.7255      163.60
         4        64.1139      1.4127     -1.1020     21.4748       71.10
         5        96.5212    -16.7559     10.7646     30.1766       74.94
         6         0.5412      0.8020      0.1946      0.5126       60.63
 1/2[<0|r|b>*<b|rxdel|0> + (<0|rxdel|b>*<b|r|0>)*]
 Rotatory Strengths (R) in cgs (10**-40 erg-esu-cm/Gauss)
       state          XX          YY          ZZ     R(length)
         1       123.9048      2.1361    -38.0320     29.3363
         2      -137.0388     -5.6152    -15.0455    -52.5665
         3         0.1549    -63.9109      2.4375    -20.4395
         4        -0.9588     57.7836     15.0946     23.9731
         5       -30.9940    116.5626      7.0563     30.8750
         6         0.5185      0.4038      0.2689      0.3971
  1/2[<0|del|b>*<b|r|0> + (<0|r|b>*<b|del|0>)*] (Au)
       state          X           Y           Z        Dip. S.   Osc.(frdel)
         1        -0.2757     -0.0009     -0.0002      0.2769      0.1846
         2        -0.0089     -0.0001     -0.0002      0.0093      0.0062
         3        -0.0000     -0.0013     -0.0001      0.0014      0.0010
         4        -0.0003     -0.3069     -0.0014      0.3087      0.2058
         5        -0.0080     -0.4193     -0.0003      0.4276      0.2851
         6        -0.0004     -0.0057     -0.0026      0.0087      0.0058

 Excitation energies and oscillator strengths:
 
 Excited State   1:      Singlet-A      3.4231 eV  362.20 nm  f=0.1917  <S**2>=0.000
      52 -> 53         0.69580
 This state for optimization and/or second-order correction.
 Total Energy, E(TD-HF/TD-DFT) =  -633.201999323    
 Copying the excited state density for this state as the 1-particle RhoCI density.
 
 Excited State   2:      Singlet-A      3.8395 eV  322.92 nm  f=0.0063  <S**2>=0.000
      50 -> 53         0.10551
      51 -> 53         0.59089
      51 -> 54        -0.31800
 
 Excited State   3:      Singlet-A      4.2557 eV  291.34 nm  f=0.0011  <S**2>=0.000
      49 -> 53         0.14981
      49 -> 54         0.11831
      50 -> 53         0.52293
      50 -> 54         0.36342
      50 -> 58         0.11652
      51 -> 53        -0.10826
      51 -> 54        -0.14008
 
 Excited State   4:      Singlet-A      5.1456 eV  240.95 nm  f=0.2190  <S**2>=0.000
      52 -> 54         0.69863
 
 Excited State   5:      Singlet-A      5.5804 eV  222.18 nm  f=0.2913  <S**2>=0.000
      49 -> 53         0.65970
      50 -> 53        -0.20650
 
 Excited State   6:      Singlet-A      6.1579 eV  201.34 nm  f=0.0053  <S**2>=0.000
      52 -> 55         0.66913
      52 -> 56         0.11139
 SavETr:  write IOETrn=   770 NScale= 10 NData=  16 NLR=1 NState=    6 LETran=     118.
 Leave Link  914 at Sat Jan 24 16:22:14 2026, MaxMem=  2147483648 cpu:            2193.0 elap:             137.8
 (Enter /data/home/wyx/g16/l601.exe)
 Copying SCF densities to generalized density rwf, IOpCl= 0 IROHF=0.

 **********************************************************************

            Population analysis using the SCF density.

 **********************************************************************

 Orbital symmetries:
       Occupied  (A) (A) (A) (A) (A) (A) (A) (A) (A) (A) (A) (A)
                 (A) (A) (A) (A) (A) (A) (A) (A) (A) (A) (A) (A)
                 (A) (A) (A) (A) (A) (A) (A) (A) (A) (A) (A) (A)
                 (A) (A) (A) (A) (A) (A) (A) (A) (A) (A) (A) (A)
                 (A) (A) (A) (A)
       Virtual   (A) (A) (A) (A) (A) (A) (A) (A) (A) (A) (A) (A)
                 (A) (A) (A) (A) (A) (A) (A) (A) (A) (A) (A) (A)
                 (A) (A) (A) (A) (A) (A) (A) (A) (A) (A) (A) (A)
                 (A) (A) (A) (A) (A) (A) (A) (A) (A) (A) (A) (A)
                 (A) (A) (A) (A) (A) (A) (A) (A) (A) (A) (A) (A)
                 (A) (A) (A) (A) (A) (A) (A) (A) (A) (A) (A) (A)
                 (A) (A) (A) (A) (A) (A) (A) (A) (A) (A) (A) (A)
                 (A) (A) (A) (A) (A) (A) (A) (A) (A) (A) (A) (A)
                 (A) (A) (A) (A) (A) (A) (A) (A) (A) (A) (A) (A)
                 (A) (A) (A) (A) (A) (A) (A) (A) (A) (A) (A) (A)
                 (A) (A) (A) (A) (A) (A) (A) (A) (A) (A) (A) (A)
                 (A) (A) (A) (A) (A) (A) (A) (A) (A) (A) (A) (A)
                 (A) (A) (A) (A) (A) (A) (A) (A) (A) (A) (A) (A)
                 (A) (A) (A) (A) (A) (A) (A) (A) (A) (A) (A) (A)
                 (A) (A) (A) (A) (A) (A) (A) (A) (A) (A) (A) (A)
                 (A) (A) (A) (A) (A) (A) (A) (A) (A) (A) (A) (A)
                 (A) (A) (A) (A) (A) (A) (A) (A) (A) (A) (A) (A)
                 (A) (A) (A) (A) (A) (A) (A) (A) (A) (A) (A) (A)
                 (A) (A) (A) (A) (A) (A) (A) (A) (A) (A) (A) (A)
                 (A) (A) (A) (A) (A) (A) (A) (A) (A) (A) (A) (A)
                 (A) (A) (A) (A) (A) (A) (A) (A) (A) (A) (A) (A)
                 (A) (A) (A) (A) (A) (A) (A) (A) (A) (A) (A) (A)
                 (A) (A) (A) (A) (A) (A) (A) (A) (A) (A) (A) (A)
                 (A) (A) (A) (A) (A) (A) (A) (A) (A) (A) (A) (A)
                 (A) (A) (A) (A) (A) (A) (A) (A) (A) (A) (A) (A)
                 (A) (A) (A) (A)
 The electronic state is 1-A.
 Alpha  occ. eigenvalues --  -19.17901 -19.17118 -14.44233 -10.33428 -10.33331
 Alpha  occ. eigenvalues --  -10.32174 -10.32018 -10.25647 -10.25060 -10.25036
 Alpha  occ. eigenvalues --  -10.24971 -10.24526 -10.24109 -10.23827  -1.11950
 Alpha  occ. eigenvalues --   -1.10293  -1.07666  -0.91413  -0.90521  -0.83900
 Alpha  occ. eigenvalues --   -0.82502  -0.81483  -0.78681  -0.74205  -0.71393
 Alpha  occ. eigenvalues --   -0.68989  -0.61949  -0.58424  -0.56906  -0.55145
 Alpha  occ. eigenvalues --   -0.54641  -0.54159  -0.52521  -0.51872  -0.50675
 Alpha  occ. eigenvalues --   -0.49851  -0.49422  -0.49070  -0.48373  -0.48275
 Alpha  occ. eigenvalues --   -0.46702  -0.45255  -0.44720  -0.43522  -0.43010
 Alpha  occ. eigenvalues --   -0.42432  -0.41955  -0.41373  -0.32991  -0.32319
 Alpha  occ. eigenvalues --   -0.31232  -0.26321
 Alpha virt. eigenvalues --   -0.02866   0.02076   0.06559   0.08291   0.08810
 Alpha virt. eigenvalues --    0.10187   0.10663   0.12035   0.12688   0.13829
 Alpha virt. eigenvalues --    0.14051   0.15460   0.15664   0.16524   0.16799
 Alpha virt. eigenvalues --    0.17441   0.17617   0.17889   0.18190   0.19120
 Alpha virt. eigenvalues --    0.19886   0.21245   0.22695   0.23363   0.23695
 Alpha virt. eigenvalues --    0.24413   0.24664   0.25460   0.25800   0.26452
 Alpha virt. eigenvalues --    0.27370   0.27634   0.28972   0.29731   0.29913
 Alpha virt. eigenvalues --    0.31463   0.32154   0.32408   0.33658   0.34607
 Alpha virt. eigenvalues --    0.35478   0.35710   0.36870   0.37928   0.38482
 Alpha virt. eigenvalues --    0.39385   0.41230   0.41886   0.42209   0.42847
 Alpha virt. eigenvalues --    0.44090   0.44541   0.45267   0.46196   0.46427
 Alpha virt. eigenvalues --    0.46836   0.48204   0.48322   0.48578   0.48911
 Alpha virt. eigenvalues --    0.49546   0.49716   0.50678   0.51421   0.51761
 Alpha virt. eigenvalues --    0.52290   0.52919   0.53715   0.53818   0.54520
 Alpha virt. eigenvalues --    0.54605   0.55577   0.55824   0.56738   0.58092
 Alpha virt. eigenvalues --    0.58720   0.59025   0.59902   0.61422   0.62103
 Alpha virt. eigenvalues --    0.63585   0.64933   0.65953   0.66795   0.67847
 Alpha virt. eigenvalues --    0.69734   0.71038   0.71381   0.72125   0.72613
 Alpha virt. eigenvalues --    0.73547   0.74743   0.75177   0.76625   0.78034
 Alpha virt. eigenvalues --    0.79111   0.79755   0.81750   0.83907   0.86063
 Alpha virt. eigenvalues --    0.87564   0.89687   0.95197   1.00478   1.24590
 Alpha virt. eigenvalues --    1.25079   1.27110   1.28429   1.29894   1.31013
 Alpha virt. eigenvalues --    1.32704   1.32941   1.33967   1.35711   1.35866
 Alpha virt. eigenvalues --    1.37217   1.37655   1.38289   1.39365   1.39557
 Alpha virt. eigenvalues --    1.40145   1.40888   1.41201   1.41792   1.42090
 Alpha virt. eigenvalues --    1.42999   1.43886   1.44258   1.45142   1.47108
 Alpha virt. eigenvalues --    1.47750   1.49362   1.49693   1.50767   1.51532
 Alpha virt. eigenvalues --    1.52007   1.52808   1.53244   1.55258   1.57260
 Alpha virt. eigenvalues --    1.58245   1.60247   1.60704   1.61624   1.61931
 Alpha virt. eigenvalues --    1.62926   1.63197   1.64478   1.65878   1.66087
 Alpha virt. eigenvalues --    1.66638   1.67429   1.67781   1.68564   1.69200
 Alpha virt. eigenvalues --    1.69345   1.70592   1.71297   1.72357   1.73348
 Alpha virt. eigenvalues --    1.73792   1.74553   1.76015   1.77117   1.79070
 Alpha virt. eigenvalues --    1.80563   1.83073   1.84605   1.85593   1.86289
 Alpha virt. eigenvalues --    1.86948   1.87212   1.87856   1.89664   1.90130
 Alpha virt. eigenvalues --    1.91492   1.93785   1.96134   1.98355   2.00422
 Alpha virt. eigenvalues --    2.01146   2.04066   2.05059   2.06816   2.09556
 Alpha virt. eigenvalues --    2.11015   2.13722   2.14391   2.18001   2.19814
 Alpha virt. eigenvalues --    2.21154   2.22079   2.22710   2.23697   2.25196
 Alpha virt. eigenvalues --    2.27258   2.28562   2.29644   2.31295   2.32181
 Alpha virt. eigenvalues --    2.34182   2.34380   2.36131   2.37391   2.38915
 Alpha virt. eigenvalues --    2.39442   2.40840   2.41299   2.44444   2.44752
 Alpha virt. eigenvalues --    2.45366   2.48132   2.48733   2.50374   2.51584
 Alpha virt. eigenvalues --    2.52741   2.53355   2.54134   2.56436   2.58151
 Alpha virt. eigenvalues --    2.58625   2.60076   2.60721   2.61594   2.63104
 Alpha virt. eigenvalues --    2.63946   2.66469   2.66551   2.67387   2.68837
 Alpha virt. eigenvalues --    2.70592   2.71773   2.72936   2.73426   2.75211
 Alpha virt. eigenvalues --    2.75952   2.77025   2.77829   2.78206   2.79244
 Alpha virt. eigenvalues --    2.79870   2.81265   2.83346   2.84152   2.84819
 Alpha virt. eigenvalues --    2.85863   2.86372   2.88006   2.89690   2.92689
 Alpha virt. eigenvalues --    2.97579   2.98817   2.99737   3.04817   3.09694
 Alpha virt. eigenvalues --    3.10077   3.11727   3.13675   3.18430   3.19156
 Alpha virt. eigenvalues --    3.21557   3.22597   3.23606   3.25069   3.26205
 Alpha virt. eigenvalues --    3.26668   3.29605   3.32288   3.35134   3.37171
 Alpha virt. eigenvalues --    3.38180   3.39448   3.39819   3.40924   3.41609
 Alpha virt. eigenvalues --    3.42228   3.44502   3.45439   3.46750   3.49032
 Alpha virt. eigenvalues --    3.49948   3.51073   3.54159   3.57135   3.59036
 Alpha virt. eigenvalues --    3.60591   3.90532   3.99555   4.32484   4.34813
 Alpha virt. eigenvalues --   21.63443  21.77303  22.06519  22.10306  22.11321
 Alpha virt. eigenvalues --   22.12971  22.15673  22.18042  22.21061  22.25905
 Alpha virt. eigenvalues --   22.30836  31.93248  43.62871  43.65159
          Condensed to atoms (all electrons):
               1          2          3          4          5          6
     1  O    7.953315   0.000000  -0.000231   0.000017   0.016746   0.016536
     2  O    0.000000   8.047950   0.000458   0.000036  -0.191477   0.001323
     3  N   -0.000231   0.000458   6.374359   0.374340  -0.106421   0.353047
     4  H    0.000017   0.000036   0.374340   0.397070   0.013679  -0.043015
     5  C    0.016746  -0.191477  -0.106421   0.013679   7.069636  -0.048246
     6  C    0.016536   0.001323   0.353047  -0.043015  -0.048246   5.596072
     7  C   -0.000288  -0.019698   0.369182  -0.043284   0.382630  -0.120796
     8  C   -0.000261   0.670113   0.004259  -0.000803  -0.397050   0.039587
     9  C   -0.021199   0.019211   0.017535   0.000035  -0.562348  -0.106922
    10  H    0.004014   0.000061   0.003237   0.000026  -0.028732  -0.010157
    11  H    0.014802  -0.000167  -0.001418   0.000006  -0.115518   0.023199
    12  C   -0.230201  -0.002682  -0.096539   0.016078   0.163698  -0.164504
    13  C    0.721855  -0.000019   0.000327   0.000423   0.069803   0.153517
    14  C   -0.000009  -0.044441  -0.043893  -0.002275  -0.037040  -0.002596
    15  H    0.000000   0.004757   0.004360   0.000112   0.010238   0.005413
    16  H   -0.000000   0.000722  -0.003891   0.000672  -0.011519  -0.000770
    17  H    0.000000   0.013869   0.003510   0.000722   0.000736  -0.000510
    18  C   -0.000217  -0.103379  -0.000375   0.000019  -0.202654  -0.001070
    19  H   -0.000003   0.006054   0.000005  -0.000001   0.017932   0.000030
    20  H    0.000017  -0.000236   0.000015  -0.000001  -0.009771   0.000198
    21  H    0.000278   0.005776   0.000113   0.000000   0.065265  -0.001442
    22  C   -0.112980   0.000000   0.000124   0.000107   0.002745  -0.010471
    23  H    0.004421  -0.000000  -0.000019  -0.000050  -0.000464  -0.031544
    24  H    0.001654   0.000000   0.000013  -0.000017  -0.000086   0.011110
    25  H    0.008926   0.000000   0.000027  -0.000002  -0.000123  -0.001271
    26  C    0.000914   0.000005  -0.029479  -0.007789   0.000324   0.186767
    27  H   -0.000171  -0.000000   0.002057   0.000881   0.000072  -0.041620
    28  H   -0.000038  -0.000000  -0.002674   0.000489   0.000388  -0.035956
    29  H    0.000022  -0.000000   0.001836   0.001328  -0.000447  -0.050824
               7          8          9         10         11         12
     1  O   -0.000288  -0.000261  -0.021199   0.004014   0.014802  -0.230201
     2  O   -0.019698   0.670113   0.019211   0.000061  -0.000167  -0.002682
     3  N    0.369182   0.004259   0.017535   0.003237  -0.001418  -0.096539
     4  H   -0.043284  -0.000803   0.000035   0.000026   0.000006   0.016078
     5  C    0.382630  -0.397050  -0.562348  -0.028732  -0.115518   0.163698
     6  C   -0.120796   0.039587  -0.106922  -0.010157   0.023199  -0.164504
     7  C    5.437322  -0.232673  -0.189251  -0.006308   0.016969   0.023951
     8  C   -0.232673   5.583376   0.136635  -0.001227  -0.006363  -0.056431
     9  C   -0.189251   0.136635   6.358217   0.394557   0.539612  -0.059466
    10  H   -0.006308  -0.001227   0.394557   0.548920  -0.035850  -0.019089
    11  H    0.016969  -0.006363   0.539612  -0.035850   0.501041  -0.104899
    12  C    0.023951  -0.056431  -0.059466  -0.019089  -0.104899   7.367669
    13  C    0.018214  -0.008512  -0.253345  -0.002984   0.000244  -0.428479
    14  C    0.228028  -0.068154   0.015441  -0.001391   0.000427   0.000665
    15  H   -0.065084   0.006188  -0.000857   0.000125  -0.000005  -0.000830
    16  H   -0.016688   0.004259  -0.000252  -0.000046   0.000052   0.000134
    17  H   -0.040974  -0.017035   0.000986   0.000122  -0.000063  -0.000247
    18  C    0.010516   0.324300  -0.000861  -0.010275   0.001353   0.004946
    19  H    0.000371  -0.046244  -0.001499   0.000209   0.000515  -0.000237
    20  H   -0.000651  -0.009758  -0.003324   0.000538  -0.000884  -0.002257
    21  H    0.003446  -0.103869  -0.014259   0.001059  -0.006467   0.006460
    22  C    0.000353  -0.000031   0.007072   0.001518   0.000742  -0.269323
    23  H    0.000002  -0.000005   0.002999  -0.000136  -0.000045   0.059533
    24  H   -0.000007   0.000003  -0.002123   0.000156  -0.000114  -0.007494
    25  H    0.000013   0.000002   0.000002  -0.000046  -0.000112   0.026193
    26  C    0.002917   0.000620   0.020494  -0.000545   0.000031  -0.078753
    27  H   -0.000687  -0.000002  -0.000946  -0.000057   0.000005  -0.005073
    28  H   -0.001056  -0.000014  -0.000169  -0.000022   0.000051  -0.019579
    29  H    0.003533   0.000003  -0.000569   0.000070  -0.000007   0.023578
              13         14         15         16         17         18
     1  O    0.721855  -0.000009   0.000000  -0.000000   0.000000  -0.000217
     2  O   -0.000019  -0.044441   0.004757   0.000722   0.013869  -0.103379
     3  N    0.000327  -0.043893   0.004360  -0.003891   0.003510  -0.000375
     4  H    0.000423  -0.002275   0.000112   0.000672   0.000722   0.000019
     5  C    0.069803  -0.037040   0.010238  -0.011519   0.000736  -0.202654
     6  C    0.153517  -0.002596   0.005413  -0.000770  -0.000510  -0.001070
     7  C    0.018214   0.228028  -0.065084  -0.016688  -0.040974   0.010516
     8  C   -0.008512  -0.068154   0.006188   0.004259  -0.017035   0.324300
     9  C   -0.253345   0.015441  -0.000857  -0.000252   0.000986  -0.000861
    10  H   -0.002984  -0.001391   0.000125  -0.000046   0.000122  -0.010275
    11  H    0.000244   0.000427  -0.000005   0.000052  -0.000063   0.001353
    12  C   -0.428479   0.000665  -0.000830   0.000134  -0.000247   0.004946
    13  C    5.478902  -0.000037  -0.000015  -0.000026   0.000002   0.000776
    14  C   -0.000037   5.209811   0.383576   0.399600   0.422533   0.000374
    15  H   -0.000015   0.383576   0.569230  -0.027491  -0.027338   0.000193
    16  H   -0.000026   0.399600  -0.027491   0.503763  -0.021708  -0.000001
    17  H    0.000002   0.422533  -0.027338  -0.021708   0.487464   0.000390
    18  C    0.000776   0.000374   0.000193  -0.000001   0.000390   5.256924
    19  H   -0.000013   0.000012  -0.000003  -0.000014   0.000090   0.400890
    20  H   -0.000092  -0.000311  -0.000005   0.000013   0.000026   0.391198
    21  H    0.001127   0.000301  -0.000021  -0.000001  -0.000099   0.396315
    22  C    0.302694  -0.000005   0.000003  -0.000001   0.000000   0.000020
    23  H   -0.083779   0.000001  -0.000000   0.000000   0.000000   0.000002
    24  H   -0.028035  -0.000001   0.000000   0.000000   0.000000  -0.000001
    25  H   -0.045404   0.000001   0.000000  -0.000000  -0.000000  -0.000000
    26  C   -0.055752   0.001007  -0.000234  -0.000091   0.000032  -0.000002
    27  H   -0.006610   0.000086  -0.000014   0.000003  -0.000002   0.000000
    28  H    0.006504  -0.000067   0.000012  -0.000017   0.000002  -0.000001
    29  H   -0.000280  -0.000145   0.000094   0.000003   0.000000   0.000000
              19         20         21         22         23         24
     1  O   -0.000003   0.000017   0.000278  -0.112980   0.004421   0.001654
     2  O    0.006054  -0.000236   0.005776   0.000000  -0.000000   0.000000
     3  N    0.000005   0.000015   0.000113   0.000124  -0.000019   0.000013
     4  H   -0.000001  -0.000001   0.000000   0.000107  -0.000050  -0.000017
     5  C    0.017932  -0.009771   0.065265   0.002745  -0.000464  -0.000086
     6  C    0.000030   0.000198  -0.001442  -0.010471  -0.031544   0.011110
     7  C    0.000371  -0.000651   0.003446   0.000353   0.000002  -0.000007
     8  C   -0.046244  -0.009758  -0.103869  -0.000031  -0.000005   0.000003
     9  C   -0.001499  -0.003324  -0.014259   0.007072   0.002999  -0.002123
    10  H    0.000209   0.000538   0.001059   0.001518  -0.000136   0.000156
    11  H    0.000515  -0.000884  -0.006467   0.000742  -0.000045  -0.000114
    12  C   -0.000237  -0.002257   0.006460  -0.269323   0.059533  -0.007494
    13  C   -0.000013  -0.000092   0.001127   0.302694  -0.083779  -0.028035
    14  C    0.000012  -0.000311   0.000301  -0.000005   0.000001  -0.000001
    15  H   -0.000003  -0.000005  -0.000021   0.000003  -0.000000   0.000000
    16  H   -0.000014   0.000013  -0.000001  -0.000001   0.000000   0.000000
    17  H    0.000090   0.000026  -0.000099   0.000000   0.000000   0.000000
    18  C    0.400890   0.391198   0.396315   0.000020   0.000002  -0.000001
    19  H    0.506388  -0.011810  -0.027846  -0.000000   0.000000   0.000000
    20  H   -0.011810   0.492167  -0.021139  -0.000004  -0.000000   0.000000
    21  H   -0.027846  -0.021139   0.540547   0.000028  -0.000000  -0.000000
    22  C   -0.000000  -0.000004   0.000028   5.423780   0.394043   0.403015
    23  H    0.000000  -0.000000  -0.000000   0.394043   0.538913  -0.027484
    24  H    0.000000   0.000000  -0.000000   0.403015  -0.027484   0.492687
    25  H   -0.000000  -0.000000  -0.000000   0.382866  -0.021430  -0.008006
    26  C    0.000000   0.000003  -0.000014  -0.032577   0.017736  -0.015699
    27  H   -0.000000   0.000000  -0.000000   0.010867  -0.009767  -0.001144
    28  H    0.000000  -0.000000  -0.000000  -0.012250  -0.001649   0.001355
    29  H    0.000000  -0.000000   0.000000   0.001840   0.000730   0.000199
              25         26         27         28         29
     1  O    0.008926   0.000914  -0.000171  -0.000038   0.000022
     2  O    0.000000   0.000005  -0.000000  -0.000000  -0.000000
     3  N    0.000027  -0.029479   0.002057  -0.002674   0.001836
     4  H   -0.000002  -0.007789   0.000881   0.000489   0.001328
     5  C   -0.000123   0.000324   0.000072   0.000388  -0.000447
     6  C   -0.001271   0.186767  -0.041620  -0.035956  -0.050824
     7  C    0.000013   0.002917  -0.000687  -0.001056   0.003533
     8  C    0.000002   0.000620  -0.000002  -0.000014   0.000003
     9  C    0.000002   0.020494  -0.000946  -0.000169  -0.000569
    10  H   -0.000046  -0.000545  -0.000057  -0.000022   0.000070
    11  H   -0.000112   0.000031   0.000005   0.000051  -0.000007
    12  C    0.026193  -0.078753  -0.005073  -0.019579   0.023578
    13  C   -0.045404  -0.055752  -0.006610   0.006504  -0.000280
    14  C    0.000001   0.001007   0.000086  -0.000067  -0.000145
    15  H    0.000000  -0.000234  -0.000014   0.000012   0.000094
    16  H   -0.000000  -0.000091   0.000003  -0.000017   0.000003
    17  H   -0.000000   0.000032  -0.000002   0.000002   0.000000
    18  C   -0.000000  -0.000002   0.000000  -0.000001   0.000000
    19  H   -0.000000   0.000000  -0.000000   0.000000   0.000000
    20  H   -0.000000   0.000003   0.000000  -0.000000  -0.000000
    21  H   -0.000000  -0.000014  -0.000000  -0.000000   0.000000
    22  C    0.382866  -0.032577   0.010867  -0.012250   0.001840
    23  H   -0.021430   0.017736  -0.009767  -0.001649   0.000730
    24  H   -0.008006  -0.015699  -0.001144   0.001355   0.000199
    25  H    0.498727   0.001895   0.000816   0.000107  -0.000047
    26  C    0.001895   5.251514   0.420466   0.433228   0.389424
    27  H    0.000816   0.420466   0.511003  -0.026288  -0.025788
    28  H    0.000107   0.433228  -0.026288   0.474495  -0.016691
    29  H   -0.000047   0.389424  -0.025788  -0.016691   0.516402
 Mulliken charges:
               1
     1  O   -0.377919
     2  O   -0.408235
     3  N   -0.223863
     4  H    0.291193
     5  C   -0.101994
     6  C    0.284911
     7  C    0.239996
     8  C    0.179085
     9  C   -0.295405
    10  H    0.162251
    11  H    0.172865
    12  C   -0.146821
    13  C    0.158996
    14  C   -0.461497
    15  H    0.137595
    16  H    0.173297
    17  H    0.177495
    18  C   -0.469381
    19  H    0.155172
    20  H    0.176068
    21  H    0.154443
    22  C   -0.494174
    23  H    0.157991
    24  H    0.180021
    25  H    0.156869
    26  C   -0.506444
    27  H    0.171912
    28  H    0.199840
    29  H    0.155736
 Sum of Mulliken charges =  -0.00000
 Mulliken charges with hydrogens summed into heavy atoms:
               1
     1  O   -0.377919
     2  O   -0.408235
     3  N    0.067330
     5  C   -0.101994
     6  C    0.284911
     7  C    0.239996
     8  C    0.179085
     9  C    0.039711
    12  C   -0.146821
    13  C    0.158996
    14  C    0.026890
    18  C    0.016302
    22  C    0.000706
    26  C    0.021044
 Electronic spatial extent (au):  <R**2>=           3205.2106
 Charge=              0.0000 electrons
 Dipole moment (field-independent basis, Debye):
    X=             -4.3417    Y=              7.6135    Z=             -0.3398  Tot=              8.7710
 Quadrupole moment (field-independent basis, Debye-Ang):
   XX=            -99.0777   YY=            -78.2951   ZZ=            -84.6897
   XY=            -13.3144   XZ=             -4.4445   YZ=             -1.2032
 Traceless Quadrupole moment (field-independent basis, Debye-Ang):
   XX=            -11.7235   YY=              9.0590   ZZ=              2.6645
   XY=            -13.3144   XZ=             -4.4445   YZ=             -1.2032
 Octapole moment (field-independent basis, Debye-Ang**2):
  XXX=           -116.6574  YYY=             65.4457  ZZZ=              2.2425  XYY=             37.0923
  XXY=             30.3883  XXZ=            -10.2008  XZZ=             -2.4429  YZZ=             -0.8600
  YYZ=              2.3693  XYZ=              3.6273
 Hexadecapole moment (field-independent basis, Debye-Ang**3):
 XXXX=          -3100.3331 YYYY=          -1270.3255 ZZZZ=           -143.6269 XXXY=            -43.9041
 XXXZ=            -58.2230 YYYX=            -94.1822 YYYZ=            -18.9057 ZZZX=              3.6463
 ZZZY=              4.1018 XXYY=           -688.8549 XXZZ=           -488.7197 YYZZ=           -237.3318
 XXYZ=             -2.7145 YYXZ=             -4.4926 ZZXY=             -0.3107
 N-N= 9.000346794521D+02 E-N=-3.276096088076D+03  KE= 6.306837868512D+02
 Leave Link  601 at Sat Jan 24 16:22:15 2026, MaxMem=  2147483648 cpu:               0.7 elap:               0.1
 (Enter /data/home/wyx/g16/l9999.exe)
 Electronic transition elements 
                 1             2             3             4             5 
      1  -0.633202D+03 -0.633187D+03 -0.633171D+03 -0.633139D+03 -0.633123D+03
      2   0.141579D+01  0.234774D+00  0.321866D-01  0.429329D+00 -0.309803D+00
      3   0.430490D+00  0.589024D-01 -0.920642D-01 -0.124609D+01  0.142585D+01
      4   0.309585D+00  0.937001D-01 -0.322254D-01  0.507024D-03 -0.386799D-01
      5  -0.170829D+00 -0.328403D-01 -0.408516D-02 -0.721951D-01  0.620559D-01
      6  -0.540783D-01 -0.894808D-02  0.135437D-01  0.222857D+00 -0.286200D+00
      7  -0.378925D-01 -0.111600D-01  0.147621D-02 -0.264266D-02  0.776493D-02
      8  -0.389005D+00  0.706015D+00  0.329948D+00 -0.991008D-01  0.287157D+00
      9   0.931639D-02  0.299010D-01 -0.884977D+00  0.475525D-01 -0.345644D-01
     10   0.136404D+01  0.592181D+00  0.167086D+00  0.198623D+00 -0.187829D+00
     11  -0.135271D+00 -0.349161D-01 -0.482068D-01 -0.104118D+01  0.671791D+00
     12   0.256428D+00  0.783175D-01  0.240583D-01  0.163404D+00 -0.262581D+00
     13   0.767675D-02  0.879365D-04  0.323257D-02 -0.587020D-01 -0.190752D-02
     14   0.478500D+00  0.748846D-01  0.149878D-01 -0.328577D+00  0.321747D+00
     15   0.156400D-01  0.939343D-02  0.570344D-01 -0.269873D+00  0.180675D+00
     16   0.115507D+00  0.840353D-01  0.201588D-01 -0.556977D-01  0.148829D+00
                 6 
      1  -0.633101D+03
      2  -0.697430D-02
      3   0.170164D+00
      4  -0.769259D-01
      5  -0.452029D-02
      6  -0.349133D-01
      7   0.359647D-01
      8  -0.173216D-01
      9  -0.963732D-02
     10   0.215027D-02
     11  -0.178208D+00
     12  -0.158874D+00
     13   0.144769D+00
     14   0.244608D-01
     15  -0.545157D-01
     16  -0.706669D-01
 1\1\GINC-CN015\SP\RCAM-B3LYP TD-FC\TZVP\C11H15N1O2\WYX\24-Jan-2026\0\\
 #p CAM-B3LYP TZVP em=gd3bj td(nstates=6,root=1) scrf=(Solvent=Water)\\
 Title Card Required\\0,1\O,0,2.755473,-1.557823,0.706056\O,0,-3.296014
 ,-1.653497,-0.973651\N,0,-0.686622,1.520378,0.046546\H,0,-0.993362,2.4
 76631,-0.024841\C,0,-1.242073,-0.762503,-0.160459\C,0,0.65331,1.306439
 ,0.229805\C,0,-1.611443,0.539659,-0.25104\C,0,-2.153442,-1.824971,-0.4
 8553\C,0,0.130902,-1.117389,0.356546\H,0,0.063954,-1.500358,1.382209\H
 ,0,0.551226,-1.933767,-0.229139\C,0,1.109638,0.033294,0.323739\C,0,2.5
 00127,-0.378668,0.465556\C,0,-2.940612,1.073239,-0.64883\H,0,-3.175574
 ,1.99823,-0.117181\H,0,-2.97999,1.290297,-1.718196\H,0,-3.760355,0.386
 72,-0.450441\C,0,-1.779893,-3.254785,-0.235175\H,0,-2.64202,-3.896807,
 -0.053949\H,0,-1.254733,-3.673948,-1.098671\H,0,-1.112143,-3.3886,0.61
 5599\C,0,3.661336,0.568976,0.296378\H,0,3.534019,1.257471,-0.534773\H,
 0,3.811569,1.156844,1.203028\H,0,4.551667,-0.033855,0.134837\C,0,1.431
 88,2.584757,0.295544\H,0,2.212928,2.556175,1.046299\H,0,1.889223,2.814
 656,-0.667357\H,0,0.771026,3.413205,0.547092\\Version=ES64L-G16RevA.03
 \State=1-A\HF=-633.3277948\RMSD=5.436e-09\PG=C01 [X(C11H15N1O2)]\\@


 SOME PEOPLE TRY TO PULL THE WOOL OVER YOUR EYES
 USING THE WRONG YARN.
 Job cpu time:       0 days  0 hours 52 minutes 34.2 seconds.
 Elapsed time:       0 days  0 hours  3 minutes 18.5 seconds.
 File lengths (MBytes):  RWF=    828 Int=      0 D2E=      0 Chk=     34 Scr=      1
 Normal termination of Gaussian 16 at Sat Jan 24 16:22:18 2026.
