 Entering Gaussian System, Link 0=g16
 Input=DDL-LR-Eq-11.gjf
 Output=DDL-LR-Eq-11.log
 Initial command:
 /data/home/wyx/g16/l1.exe "/scr/tmp/wyx/13106/Gau-1966577.inp" -scrdir="/scr/tmp/wyx/13106/"
 Entering Link 1 = /data/home/wyx/g16/l1.exe PID=   1966578.
  
 Copyright (c) 1988,1990,1992,1993,1995,1998,2003,2009,2016,
            Gaussian, Inc.  All Rights Reserved.
  
 This is part of the Gaussian(R) 16 program.  It is based on
 the Gaussian(R) 09 system (copyright 2009, Gaussian, Inc.),
 the Gaussian(R) 03 system (copyright 2003, Gaussian, Inc.),
 the Gaussian(R) 98 system (copyright 1998, Gaussian, Inc.),
 the Gaussian(R) 94 system (copyright 1995, Gaussian, Inc.),
 the Gaussian 92(TM) system (copyright 1992, Gaussian, Inc.),
 the Gaussian 90(TM) system (copyright 1990, Gaussian, Inc.),
 the Gaussian 88(TM) system (copyright 1988, Gaussian, Inc.),
 the Gaussian 86(TM) system (copyright 1986, Carnegie Mellon
 University), and the Gaussian 82(TM) system (copyright 1983,
 Carnegie Mellon University). Gaussian is a federally registered
 trademark of Gaussian, Inc.
  
 This software contains proprietary and confidential information,
 including trade secrets, belonging to Gaussian, Inc.
  
 This software is provided under written license and may be
 used, copied, transmitted, or stored only in accord with that
 written license.
  
 The following legend is applicable only to US Government
 contracts under FAR:
  
                    RESTRICTED RIGHTS LEGEND
  
 Use, reproduction and disclosure by the US Government is
 subject to restrictions as set forth in subparagraphs (a)
 and (c) of the Commercial Computer Software - Restricted
 Rights clause in FAR 52.227-19.
  
 Gaussian, Inc.
 340 Quinnipiac St., Bldg. 40, Wallingford CT 06492
  
  
 ---------------------------------------------------------------
 Warning -- This program may not be used in any manner that
 competes with the business of Gaussian, Inc. or will provide
 assistance to any competitor of Gaussian, Inc.  The licensee
 of this program is prohibited from giving any competitor of
 Gaussian, Inc. access to this program.  By using this program,
 the user acknowledges that Gaussian, Inc. is engaged in the
 business of creating and licensing software in the field of
 computational chemistry and represents and warrants to the
 licensee that it is not a competitor of Gaussian, Inc. and that
 it will not use this program in any manner prohibited above.
 ---------------------------------------------------------------
  

 Cite this work as:
 Gaussian 16, Revision A.03,
 M. J. Frisch, G. W. Trucks, H. B. Schlegel, G. E. Scuseria, 
 M. A. Robb, J. R. Cheeseman, G. Scalmani, V. Barone, 
 G. A. Petersson, H. Nakatsuji, X. Li, M. Caricato, A. V. Marenich, 
 J. Bloino, B. G. Janesko, R. Gomperts, B. Mennucci, H. P. Hratchian, 
 J. V. Ortiz, A. F. Izmaylov, J. L. Sonnenberg, D. Williams-Young, 
 F. Ding, F. Lipparini, F. Egidi, J. Goings, B. Peng, A. Petrone, 
 T. Henderson, D. Ranasinghe, V. G. Zakrzewski, J. Gao, N. Rega, 
 G. Zheng, W. Liang, M. Hada, M. Ehara, K. Toyota, R. Fukuda, 
 J. Hasegawa, M. Ishida, T. Nakajima, Y. Honda, O. Kitao, H. Nakai, 
 T. Vreven, K. Throssell, J. A. Montgomery, Jr., J. E. Peralta, 
 F. Ogliaro, M. J. Bearpark, J. J. Heyd, E. N. Brothers, K. N. Kudin, 
 V. N. Staroverov, T. A. Keith, R. Kobayashi, J. Normand, 
 K. Raghavachari, A. P. Rendell, J. C. Burant, S. S. Iyengar, 
 J. Tomasi, M. Cossi, J. M. Millam, M. Klene, C. Adamo, R. Cammi, 
 J. W. Ochterski, R. L. Martin, K. Morokuma, O. Farkas, 
 J. B. Foresman, and D. J. Fox, Gaussian, Inc., Wallingford CT, 2016.
 
 ******************************************
 Gaussian 16:  ES64L-G16RevA.03 25-Dec-2016
                23-Jan-2026 
 ******************************************
 %nprocshared=16
 Will use up to   16 processors via shared memory.
 %mem=16GB
 %oldchk=DDL-LR-11.chk
 %chk=DDL-LR-Eq-11.chk
 Copying data from "DDL-LR-11.chk" to current chk file "DDL-LR-Eq-11.chk"
 IOpt=  2 FromEx=T IUOpen= 4 IOptOp= 5 NList=   0 IFRang= 0 IUIn= 4 IUOut= 2.
 ----------------------------------------------------------------------
 #p CAM-B3LYP TZVP em=gd3bj td(Eqsolv,nstates=6,root=1) scrf=(Solvent=T
 etraHydroFuran) Geom=Check Guess=Read
 ----------------------------------------------------------------------
 1/29=2,38=1,172=1/1;
 2/12=2,40=1/2;
 3/5=19,7=101,11=9,14=-4,25=1,30=1,70=2201,72=20,74=-40,116=-2,124=41/1,2,3,8;
 4/5=1/1;
 5/5=2,38=6,53=20/2;
 8/6=1,10=1,107=1,108=6/1;
 9/8=1,41=6,42=1,70=2,73=2/14;
 6/7=2,8=2,9=2,10=2/1;
 99/5=1,9=1/99;
 Leave Link    1 at Fri Jan 23 16:07:41 2026, MaxMem=  2147483648 cpu:               0.8 elap:               0.1
 (Enter /data/home/wyx/g16/l101.exe)
 -------------------
 Title Card Required
 -------------------
 Structure from the checkpoint file:  "DDL-LR-Eq-11.chk"
 Charge =  0 Multiplicity = 1
 Z-Matrix found in chk file.
 O,0,2.836832,-1.567195,0.12015
 O,0,-3.422894,-1.628617,0.015858
 N,0,-0.643136,1.512703,-0.316036
 H,0,-0.952955,2.470835,-0.368901
 C,0,-1.240696,-0.758744,-0.217253
 C,0,0.695026,1.308926,-0.083284
 C,0,-1.618491,0.5552,-0.27764
 C,0,-2.220632,-1.83308,-0.122747
 C,0,0.212755,-1.103549,-0.308658
 H,0,0.45117,-1.938208,0.351288
 H,0,0.448154,-1.494127,-1.310067
 C,0,1.150319,0.023657,0.001442
 C,0,2.514342,-0.39597,0.310416
 C,0,-3.007478,1.092885,-0.311965
 H,0,-3.009792,2.156926,-0.541857
 H,0,-3.612755,0.57366,-1.046856
 H,0,-3.502717,0.949116,0.644992
 C,0,-1.725627,-3.252464,-0.189204
 H,0,-2.565384,-3.923776,-0.32968
 H,0,-1.007624,-3.405413,-0.990465
 H,0,-1.224877,-3.525203,0.738705
 C,0,3.541426,0.539147,0.901073
 H,0,4.053801,1.090261,0.110327
 H,0,3.115932,1.25815,1.596249
 H,0,4.282359,-0.068284,1.415649
 C,0,1.467761,2.582942,0.03117
 H,0,1.574061,2.894015,1.070281
 H,0,2.458425,2.500964,-0.39802
 H,0,0.952695,3.385241,-0.494964
 Recover connectivity data from disk.
 ITRead=  0  0  0  0  0  0  0  0  0  0  0  0  0  0  0  0  0  0  0  0
 ITRead=  0  0  0  0  0  0  0  0  0
 MicOpt= -1 -1 -1 -1 -1 -1 -1 -1 -1 -1 -1 -1 -1 -1 -1 -1 -1 -1 -1 -1
 MicOpt= -1 -1 -1 -1 -1 -1 -1 -1 -1
 NAtoms=     29 NQM=       29 NQMF=       0 NMMI=      0 NMMIF=      0
                NMic=       0 NMicF=      0.
                    Isotopes and Nuclear Properties:
 (Nuclear quadrupole moments (NQMom) in fm**2, nuclear magnetic moments (NMagM)
  in nuclear magnetons)

  Atom         1           2           3           4           5           6           7           8           9          10
 IAtWgt=          16          16          14           1          12          12          12          12          12           1
 AtmWgt=  15.9949146  15.9949146  14.0030740   1.0078250  12.0000000  12.0000000  12.0000000  12.0000000  12.0000000   1.0078250
 NucSpn=           0           0           2           1           0           0           0           0           0           1
 AtZEff=   5.6000000   5.6000000   4.5500000   1.0000000   3.6000000   3.6000000   3.6000000   3.6000000   3.6000000   1.0000000
 NQMom=    0.0000000   0.0000000   2.0440000   0.0000000   0.0000000   0.0000000   0.0000000   0.0000000   0.0000000   0.0000000
 NMagM=    0.0000000   0.0000000   0.4037610   2.7928460   0.0000000   0.0000000   0.0000000   0.0000000   0.0000000   2.7928460
 AtZNuc=   8.0000000   8.0000000   7.0000000   1.0000000   6.0000000   6.0000000   6.0000000   6.0000000   6.0000000   1.0000000

  Atom        11          12          13          14          15          16          17          18          19          20
 IAtWgt=           1          12          12          12           1           1           1          12           1           1
 AtmWgt=   1.0078250  12.0000000  12.0000000  12.0000000   1.0078250   1.0078250   1.0078250  12.0000000   1.0078250   1.0078250
 NucSpn=           1           0           0           0           1           1           1           0           1           1
 AtZEff=   1.0000000   3.6000000   3.6000000   3.6000000   1.0000000   1.0000000   1.0000000   3.6000000   1.0000000   1.0000000
 NQMom=    0.0000000   0.0000000   0.0000000   0.0000000   0.0000000   0.0000000   0.0000000   0.0000000   0.0000000   0.0000000
 NMagM=    2.7928460   0.0000000   0.0000000   0.0000000   2.7928460   2.7928460   2.7928460   0.0000000   2.7928460   2.7928460
 AtZNuc=   1.0000000   6.0000000   6.0000000   6.0000000   1.0000000   1.0000000   1.0000000   6.0000000   1.0000000   1.0000000

  Atom        21          22          23          24          25          26          27          28          29
 IAtWgt=           1          12           1           1           1          12           1           1           1
 AtmWgt=   1.0078250  12.0000000   1.0078250   1.0078250   1.0078250  12.0000000   1.0078250   1.0078250   1.0078250
 NucSpn=           1           0           1           1           1           0           1           1           1
 AtZEff=   1.0000000   3.6000000   1.0000000   1.0000000   1.0000000   3.6000000   1.0000000   1.0000000   1.0000000
 NQMom=    0.0000000   0.0000000   0.0000000   0.0000000   0.0000000   0.0000000   0.0000000   0.0000000   0.0000000
 NMagM=    2.7928460   0.0000000   2.7928460   2.7928460   2.7928460   0.0000000   2.7928460   2.7928460   2.7928460
 AtZNuc=   1.0000000   6.0000000   1.0000000   1.0000000   1.0000000   6.0000000   1.0000000   1.0000000   1.0000000
 Leave Link  101 at Fri Jan 23 16:07:45 2026, MaxMem=  2147483648 cpu:               0.9 elap:               0.1
 (Enter /data/home/wyx/g16/l202.exe)
                          Input orientation:                          
 ---------------------------------------------------------------------
 Center     Atomic      Atomic             Coordinates (Angstroms)
 Number     Number       Type             X           Y           Z
 ---------------------------------------------------------------------
      1          8           0        2.836832   -1.567195    0.120150
      2          8           0       -3.422894   -1.628617    0.015858
      3          7           0       -0.643136    1.512703   -0.316036
      4          1           0       -0.952955    2.470835   -0.368901
      5          6           0       -1.240696   -0.758744   -0.217253
      6          6           0        0.695026    1.308926   -0.083284
      7          6           0       -1.618491    0.555200   -0.277640
      8          6           0       -2.220632   -1.833080   -0.122747
      9          6           0        0.212755   -1.103549   -0.308658
     10          1           0        0.451170   -1.938208    0.351288
     11          1           0        0.448154   -1.494127   -1.310067
     12          6           0        1.150319    0.023657    0.001442
     13          6           0        2.514342   -0.395970    0.310416
     14          6           0       -3.007478    1.092885   -0.311965
     15          1           0       -3.009792    2.156926   -0.541857
     16          1           0       -3.612755    0.573660   -1.046856
     17          1           0       -3.502717    0.949116    0.644992
     18          6           0       -1.725627   -3.252464   -0.189204
     19          1           0       -2.565384   -3.923776   -0.329680
     20          1           0       -1.007624   -3.405413   -0.990465
     21          1           0       -1.224877   -3.525203    0.738705
     22          6           0        3.541426    0.539147    0.901073
     23          1           0        4.053801    1.090261    0.110327
     24          1           0        3.115932    1.258150    1.596249
     25          1           0        4.282359   -0.068284    1.415649
     26          6           0        1.467761    2.582942    0.031170
     27          1           0        1.574061    2.894015    1.070281
     28          1           0        2.458425    2.500964   -0.398020
     29          1           0        0.952695    3.385241   -0.494964
 ---------------------------------------------------------------------
                    Distance matrix (angstroms):
                    1          2          3          4          5
     1  O    0.000000
     2  O    6.260896   0.000000
     3  N    4.667570   4.207743   0.000000
     4  H    5.559437   4.801473   1.008365   0.000000
     5  C    4.170572   2.360722   2.350810   3.245916   0.000000
     6  C    3.591767   5.059274   1.373454   2.036529   2.835529
     7  C    4.951030   2.847994   1.367334   2.030006   1.368512
     8  C    5.070270   1.227375   3.704068   4.493471   1.457190
     9  C    2.699004   3.687676   2.752704   3.760150   1.496585
    10  H    2.425378   3.900863   3.681252   4.682937   2.139342
    11  H    2.785075   4.094042   3.349633   4.309272   2.141785
    12  C    2.321471   4.862560   2.352558   3.248014   2.525259
    13  C    1.229621   6.070993   3.742344   4.549966   3.809245
    14  C    6.435737   2.772474   2.401328   2.474480   2.561058
    15  H    6.963501   3.848641   2.463144   2.087829   3.425814
    16  H    6.895095   2.452638   3.199146   3.336680   2.844329
    17  H    6.840845   2.654598   3.068943   3.137657   2.962599
    18  C    4.873588   2.357890   4.888219   5.778016   2.540587
    19  H    5.910986   2.474364   5.766327   6.594886   3.432909
    20  H    4.403675   3.162787   4.977507   5.909283   2.767135
    21  H    4.551251   2.991793   5.179903   6.103540   2.927012
    22  C    2.354351   7.347419   4.465392   5.054079   5.079750
    23  H    2.922872   7.956267   4.735130   5.215673   5.617635
    24  H    3.199897   7.320335   4.225189   4.678489   5.131945
    25  H    2.452468   7.985298   5.455158   6.086071   5.800624
    26  C    4.371031   6.454144   2.392039   2.456113   4.308633
    27  H    4.732836   6.821698   2.957340   2.938730   4.787823
    28  H    4.118447   7.198239   3.256234   3.411637   4.933748
    29  H    5.334319   6.674241   2.466798   2.117435   4.696882
                    6          7          8          9         10
     6  C    0.000000
     7  C    2.440950   0.000000
     8  C    4.286586   2.467883   0.000000
     9  C    2.470509   2.471006   2.547185   0.000000
    10  H    3.285148   3.300929   2.715564   1.090425   0.000000
    11  H    3.069698   3.088150   2.940584   1.100356   1.719685
    12  C    1.366158   2.833149   3.850481   1.498593   2.111899
    13  C    2.524199   4.281453   4.967182   2.486207   2.576208
    14  C    3.715845   1.489822   3.035820   3.897978   4.646469
    15  H    3.828194   2.138003   4.088835   4.590195   5.435631
    16  H    4.475049   2.137551   2.929911   4.241756   4.977929
    17  H    4.275616   2.134649   3.158129   4.350588   4.904704
    18  C    5.164984   3.810197   1.504692   2.896451   2.599586
    19  H    6.170264   4.578268   2.129010   3.958810   3.675023
    20  H    5.093818   4.070348   2.167153   2.693096   2.465983
    21  H    5.265975   4.223456   2.144040   3.004690   2.340465
    22  C    3.108619   5.292860   6.314822   3.904094   3.998654
    23  H    3.371449   5.710666   6.925948   4.443195   4.712604
    24  H    2.946896   5.140074   6.402309   4.199373   4.343684
    25  H    4.124617   6.170575   6.911589   4.539459   4.394029
    26  C    1.494435   3.705678   5.755796   3.909059   4.645076
    27  H    2.148470   4.180829   6.178061   4.442426   5.012805
    28  H    2.151648   4.519041   6.383830   4.247768   4.929177
    29  H    2.132360   3.829799   6.118776   4.553181   5.413574
                   11         12         13         14         15
    11  H    0.000000
    12  C    2.125267   0.000000
    13  C    2.846234   1.460175   0.000000
    14  C    4.430602   4.304503   5.752786   0.000000
    15  H    5.087015   4.706648   6.144892   1.088595   0.000000
    16  H    4.564647   4.907984   6.350093   1.084444   1.767857
    17  H    5.039948   4.787627   6.174641   1.087059   1.763630
    18  C    3.012210   4.363528   5.136781   4.532137   5.570902
    19  H    3.993215   5.431235   6.217616   5.036134   6.100611
    20  H    2.423726   4.171225   4.811786   4.969352   5.928705
    21  H    3.334932   4.333534   4.894618   5.060465   6.091991
    22  C    4.311806   2.606235   1.509378   6.683280   6.900559
    23  H    4.658033   3.095110   2.149152   7.073896   7.173386
    24  H    4.810275   2.816206   2.179768   6.415976   6.550098
    25  H    4.915657   3.437748   2.110640   7.581206   7.871395
    26  C    4.411463   2.579068   3.169736   4.729247   4.534130
    27  H    5.117569   3.092075   3.505071   5.113235   4.914672
    28  H    4.564403   2.829799   2.982823   5.645014   5.480917
    29  H    4.972644   3.403780   4.169525   4.579449   4.148766
                   16         17         18         19         20
    16  H    0.000000
    17  H    1.736498   0.000000
    18  C    4.351556   4.637586   0.000000
    19  H    4.673142   5.057040   1.084244   0.000000
    20  H    4.756355   5.278459   1.086711   1.769733   0.000000
    21  H    5.068616   5.021640   1.089106   1.759905   1.746876
    22  C    7.414710   7.060708   6.580795   7.663261   6.311206
    23  H    7.770587   7.576724   7.235383   8.315515   6.858633
    24  H    7.261526   6.693796   6.853771   7.927100   6.741189
    25  H    8.295110   7.889006   6.986448   8.050005   6.701473
    26  C    5.568752   5.267999   6.655693   7.663801   6.559852
    27  H    6.063776   5.453181   7.088967   8.097973   7.112986
    28  H    6.402712   6.247505   7.117010   8.156017   6.873847
    29  H    5.390075   5.204316   7.164218   8.113318   7.085291
                   21         22         23         24         25
    21  H    0.000000
    22  C    6.266015   0.000000
    23  H    7.040015   1.091574   0.000000
    24  H    6.516016   1.086867   1.765148   0.000000
    25  H    6.537445   1.087540   1.760208   1.775555   0.000000
    26  C    6.712700   3.038736   2.986966   2.630782   4.107036
    27  H    7.010732   3.073200   3.213122   2.308693   4.028570
    28  H    7.153569   2.590224   2.189458   2.440084   3.635542
    29  H    7.349694   4.092762   3.905146   3.684736   5.163714
                   26         27         28         29
    26  C    0.000000
    27  H    1.089871   0.000000
    28  H    1.082746   1.758550   0.000000
    29  H    1.088942   1.754249   1.748876   0.000000
 Stoichiometry    C11H15NO2
 Framework group  C1[X(C11H15NO2)]
 Deg. of freedom    81
 Full point group                 C1      NOp   1
 RotChk:  IX=0 Diff= 6.90D-16
 Largest Abelian subgroup         C1      NOp   1
 Largest concise Abelian subgroup C1      NOp   1
                         Standard orientation:                         
 ---------------------------------------------------------------------
 Center     Atomic      Atomic             Coordinates (Angstroms)
 Number     Number       Type             X           Y           Z
 ---------------------------------------------------------------------
      1          8           0        2.287517   -2.279613   -0.217004
      2          8           0       -3.604160   -0.249331    0.387078
      3          7           0        0.023175    1.801873   -0.196104
      4          1           0        0.050541    2.809865   -0.194835
      5          6           0       -1.291464   -0.143192   -0.074635
      6          6           0        1.230668    1.151791   -0.120411
      7          6           0       -1.208647    1.222786   -0.066196
      8          6           0       -2.561310   -0.833903    0.109251
      9          6           0       -0.055988   -0.946095   -0.336760
     10          1           0       -0.047839   -1.848351    0.275526
     11          1           0       -0.067410   -1.335580   -1.365815
     12          6           0        1.232502   -0.214345   -0.112890
     13          6           0        2.399135   -1.080523    0.031380
     14          6           0       -2.331391    2.192910    0.067496
     15          1           0       -1.998180    3.208300   -0.139845
     16          1           0       -3.146529    1.946925   -0.604115
     17          1           0       -2.747670    2.168319    1.071391
     18          6           0       -2.582605   -2.330971   -0.040523
     19          1           0       -3.608987   -2.675662   -0.098072
     20          1           0       -2.042122   -2.668583   -0.920772
     21          1           0       -2.112756   -2.806634    0.819208
     22          6           0        3.734823   -0.575204    0.520061
     23          1           0        4.320988   -0.182230   -0.312714
     24          1           0        3.648235    0.203957    1.272849
     25          1           0        4.275427   -1.422511    0.935467
     26          6           0        2.394702    2.087608   -0.069360
     27          1           0        2.703028    2.286461    0.956900
     28          1           0        3.251612    1.705118   -0.609494
     29          1           0        2.130041    3.043877   -0.518022
 ---------------------------------------------------------------------
 Rotational constants (GHZ):           1.0790154           0.4906639           0.3457062
 Leave Link  202 at Fri Jan 23 16:07:45 2026, MaxMem=  2147483648 cpu:               0.0 elap:               0.0
 (Enter /data/home/wyx/g16/l301.exe)
 Standard basis: TZVP (5D, 7F)
 Ernie: Thresh=  0.10000D-02 Tol=  0.10000D-05 Strict=F.
 There are   370 symmetry adapted cartesian basis functions of A   symmetry.
 There are   356 symmetry adapted basis functions of A   symmetry.
   356 basis functions,   610 primitive gaussians,   370 cartesian basis functions
    52 alpha electrons       52 beta electrons
       nuclear repulsion energy       900.7198647573 Hartrees.
 IExCor=20419 DFT=T Ex+Corr=CAM-B3LYP ExCW=0 ScaHFX=  1.000000
 ScaDFX=  1.000000  1.000000  1.000000  0.810000 ScalE2=  1.000000  1.000000
 IRadAn=      5 IRanWt=     -1 IRanGd=            0 ICorTp=0 IEmpDi=141
 HFx  wShort=  0.000000 wLong=  0.330000 cFull=  0.190000 cShort=  0.000000 cLong=  0.460000
 DFx  wShort=  0.000000 wLong=  0.330000 cFull=  0.190000 cShort=  0.000000 cLong=  0.460000
 NAtoms=   29 NActive=   29 NUniq=   29 SFac= 1.00D+00 NAtFMM=   60 NAOKFM=F Big=F
 Integral buffers will be    131072 words long.
 Raffenetti 1 integral format.
 Two-electron integral symmetry is turned on.
 R6Disp:  Grimme-D3(BJ) Dispersion energy=       -0.0261898535 Hartrees.
 Nuclear repulsion after empirical dispersion term =      900.6936749039 Hartrees.
 ------------------------------------------------------------------------------
 Polarizable Continuum Model (PCM)
 =================================
 Model                : PCM.
 Atomic radii         : UFF (Universal Force Field).
 Polarization charges : Total charges.
 Charge compensation  : None.
 Solution method      : On-the-fly selection.
 Cavity type          : Scaled VdW (van der Waals Surface) (Alpha=1.100).
 Cavity algorithm     : GePol (No added spheres)
                        Default sphere list used, NSphG=   29.
                        Lebedev-Laikov grids with approx.  5.0 points / Ang**2.
                        Smoothing algorithm: York/Karplus (Gamma=1.0000).
                        Polarization charges: spherical gaussians, with
                                              point-specific exponents (IZeta= 3).
                        Self-potential: point-specific (ISelfS= 7).
                        Self-field    : sphere-specific E.n sum rule (ISelfD= 2).
 Solvent              : TetraHydroFuran, Eps=   7.425700 Eps(inf)=   1.974025
 ------------------------------------------------------------------------------
 GePol: Number of generator spheres                  =      29
 GePol: Total number of spheres                      =      29
 GePol: Number of exposed spheres                    =      29 (100.00%)
 GePol: Number of points                             =    2108
 GePol: Average weight of points                     =       0.13
 GePol: Minimum weight of points                     =   0.11D-11
 GePol: Maximum weight of points                     =    0.20577
 GePol: Number of points with low weight             =     142
 GePol: Fraction of low-weight points (<1% of avg)   =       6.74%
 GePol: Cavity surface area                          =    268.460 Ang**2
 GePol: Cavity volume                                =    286.480 Ang**3
 Leave Link  301 at Fri Jan 23 16:07:45 2026, MaxMem=  2147483648 cpu:               0.6 elap:               0.0
 (Enter /data/home/wyx/g16/l302.exe)
 NPDir=0 NMtPBC=     1 NCelOv=     1 NCel=       1 NClECP=     1 NCelD=      1
         NCelK=      1 NCelE2=     1 NClLst=     1 CellRange=     0.0.
 One-electron integrals computed using PRISM.
 One-electron integral symmetry used in STVInt
 NBasis=   356 RedAO= T EigKep=  4.69D-05  NBF=   356
 NBsUse=   356 1.00D-06 EigRej= -1.00D+00 NBFU=   356
 Precomputing XC quadrature grid using
 IXCGrd= 4 IRadAn=           5 IRanWt=          -1 IRanGd=           0 AccXCQ= 0.00D+00.
 Generated NRdTot=       0 NPtTot=           0 NUsed=           0 NTot=          32
 NSgBfM=   366   366   366   366   366 MxSgAt=    29 MxSgA2=    29.
 Leave Link  302 at Fri Jan 23 16:07:45 2026, MaxMem=  2147483648 cpu:               3.1 elap:               0.2
 (Enter /data/home/wyx/g16/l303.exe)
 DipDrv:  MaxL=1.
 Leave Link  303 at Fri Jan 23 16:07:46 2026, MaxMem=  2147483648 cpu:               0.6 elap:               0.0
 (Enter /data/home/wyx/g16/l308.exe)
 Leave Link  308 at Fri Jan 23 16:07:46 2026, MaxMem=  2147483648 cpu:               0.7 elap:               0.1
 (Enter /data/home/wyx/g16/l401.exe)
 Initial guess from the checkpoint file:  "DDL-LR-Eq-11.chk"
 B after Tr=    -0.000000    0.000000   -0.000000
         Rot=    1.000000   -0.000000   -0.000000    0.000000 Ang=   0.00 deg.
 Guess basis will be translated and rotated to current coordinates.
 GSVD:  received Info=                   1 from GESDD.
 JPrj=2 DoOrth=T DoCkMO=T.
 Leave Link  401 at Fri Jan 23 16:07:46 2026, MaxMem=  2147483648 cpu:               2.4 elap:               0.2
 (Enter /data/home/wyx/g16/l502.exe)
 Integral symmetry usage will be decided dynamically.
 Closed shell SCF:
 Using DIIS extrapolation, IDIIS=  1040.
 NGot=  2147483648 LenX=  2147200095 LenY=  2147062754
 Requested convergence on RMS density matrix=1.00D-08 within 128 cycles.
 Requested convergence on MAX density matrix=1.00D-06.
 Requested convergence on             energy=1.00D-06.
 No special actions if energy rises.
 Fock matrices will be formed incrementally for  20 cycles.

 Cycle   1  Pass 1  IDiag  1:
 FoFJK:  IHMeth= 1 ICntrl=       0 DoSepK=T KAlg= 0 I1Cent=           0 FoldK=F
 IRaf=         1 NMat=       1 IRICut=       1 DoRegI=T DoRafI=F ISym2E= 0 IDoP0=0 IntGTp=1.
 FoFCou: FMM=F IPFlag=           0 FMFlag=      100000 FMFlg1=           0
         NFxFlg=           0 DoJE=T BraDBF=F KetDBF=F FulRan=T
         wScrn=  0.000000 ICntrl=       500 IOpCl=  0 I1Cent=           0 NGrid=           0
         NMat0=    1 NMatS0=      1 NMatT0=    0 NMatD0=    1 NMtDS0=    0 NMtDT0=    0
 Symmetry not used in FoFCou.
 Inv3:  Mode=1 IEnd=    13330992.
 Iteration    1 A*A^-1 deviation from unit magnitude is 3.77D-15 for   1749.
 Iteration    1 A*A^-1 deviation from orthogonality  is 2.01D-15 for   1762    759.
 Iteration    1 A^-1*A deviation from unit magnitude is 3.77D-15 for   1749.
 Iteration    1 A^-1*A deviation from orthogonality  is 6.41D-15 for   1381   1350.
 E= -633.327563580786    
 DIIS: error= 1.54D-08 at cycle   1 NSaved=   1.
 NSaved= 1 IEnMin= 1 EnMin= -633.327563580786     IErMin= 1 ErrMin= 1.54D-08
 ErrMax= 1.54D-08  0.00D+00 EMaxC= 1.00D-01 BMatC= 6.38D-14 BMatP= 6.38D-14
 IDIUse=1 WtCom= 1.00D+00 WtEn= 0.00D+00
 Coeff-Com:  0.100D+01
 Coeff:      0.100D+01
 Gap=     0.232 Goal=   None    Shift=    0.000
 RMSDP=2.87D-09 MaxDP=8.29D-08              OVMax= 3.36D-07

 Error on total polarization charges =  0.01420
 SCF Done:  E(RCAM-B3LYP) =  -633.327563581     A.U. after    1 cycles
            NFock=  1  Conv=0.29D-08     -V/T= 2.0041
 KE= 6.307374022172D+02 PE=-3.277467101242D+03 EE= 1.112708460541D+03
 Leave Link  502 at Fri Jan 23 16:07:52 2026, MaxMem=  2147483648 cpu:              85.4 elap:               5.6
 (Enter /data/home/wyx/g16/l801.exe)
 DoSCS=F DFT=T ScalE2(SS,OS)=  1.000000  1.000000
 ExpMin= 9.52D-02 ExpMax= 2.70D+04 ExpMxC= 9.22D+02 IAcc=3 IRadAn=         5 AccDes= 0.00D+00
 HarFok:  IExCor=  205 AccDes= 0.00D+00 IRadAn=         5 IDoV=-2 UseB2=F ITyADJ=14
 ICtDFT= 12500011 ScaDFX=  1.000000  1.000000  1.000000  1.000000
 Largest valence mixing into a core orbital is  5.62D-05
 Largest core mixing into a valence orbital is  1.19D-05
 Range of M.O.s used for correlation:    15   356
 NBasis=   356 NAE=    52 NBE=    52 NFC=    14 NFV=     0
 NROrb=    342 NOA=    38 NOB=    38 NVA=   304 NVB=   304

 **** Warning!!: The largest alpha MO coefficient is  0.57392016D+02

 Leave Link  801 at Fri Jan 23 16:07:52 2026, MaxMem=  2147483648 cpu:               1.0 elap:               0.1
 (Enter /data/home/wyx/g16/l914.exe)
 RHF ground state
 Two-electron integrals replicated using symmetry.
 MDV=  2147483648 DFT=T DoStab=F Mixed=T DoRPA=T DoScal=F NonHer=T
 NEqPCM:  Using equilibrium solvation (IEInf=0, Eps=   7.4257, EpsInf=   1.9740)
 Making orbital integer symmetry assigments:
 Orbital symmetries:
       Occupied  (A) (A) (A) (A) (A) (A) (A) (A) (A) (A) (A) (A)
                 (A) (A) (A) (A) (A) (A) (A) (A) (A) (A) (A) (A)
                 (A) (A) (A) (A) (A) (A) (A) (A) (A) (A) (A) (A)
                 (A) (A) (A) (A) (A) (A) (A) (A) (A) (A) (A) (A)
                 (A) (A) (A) (A)
       Virtual   (A) (A) (A) (A) (A) (A) (A) (A) (A) (A) (A) (A)
                 (A) (A) (A) (A) (A) (A) (A) (A) (A) (A) (A) (A)
                 (A) (A) (A) (A) (A) (A) (A) (A) (A) (A) (A) (A)
                 (A) (A) (A) (A) (A) (A) (A) (A) (A) (A) (A) (A)
                 (A) (A) (A) (A) (A) (A) (A) (A) (A) (A) (A) (A)
                 (A) (A) (A) (A) (A) (A) (A) (A) (A) (A) (A) (A)
                 (A) (A) (A) (A) (A) (A) (A) (A) (A) (A) (A) (A)
                 (A) (A) (A) (A) (A) (A) (A) (A) (A) (A) (A) (A)
                 (A) (A) (A) (A) (A) (A) (A) (A) (A) (A) (A) (A)
                 (A) (A) (A) (A) (A) (A) (A) (A) (A) (A) (A) (A)
                 (A) (A) (A) (A) (A) (A) (A) (A) (A) (A) (A) (A)
                 (A) (A) (A) (A) (A) (A) (A) (A) (A) (A) (A) (A)
                 (A) (A) (A) (A) (A) (A) (A) (A) (A) (A) (A) (A)
                 (A) (A) (A) (A) (A) (A) (A) (A) (A) (A) (A) (A)
                 (A) (A) (A) (A) (A) (A) (A) (A) (A) (A) (A) (A)
                 (A) (A) (A) (A) (A) (A) (A) (A) (A) (A) (A) (A)
                 (A) (A) (A) (A) (A) (A) (A) (A) (A) (A) (A) (A)
                 (A) (A) (A) (A) (A) (A) (A) (A) (A) (A) (A) (A)
                 (A) (A) (A) (A) (A) (A) (A) (A) (A) (A) (A) (A)
                 (A) (A) (A) (A) (A) (A) (A) (A) (A) (A) (A) (A)
                 (A) (A) (A) (A) (A) (A) (A) (A) (A) (A) (A) (A)
                 (A) (A) (A) (A) (A) (A) (A) (A) (A) (A) (A) (A)
                 (A) (A) (A) (A) (A) (A) (A) (A) (A) (A) (A) (A)
                 (A) (A) (A) (A) (A) (A) (A) (A) (A) (A) (A) (A)
                 (A) (A) (A) (A) (A) (A) (A) (A) (A) (A) (A) (A)
                 (A) (A) (A) (A)
    24 initial guesses have been made.
 Convergence on wavefunction:    0.001000000000000
 Davidson Disk Diagonalization:  ConvIn= 1.00D-03 SkipCon=T Conv= 1.00D-03.
 Max sub-space:  2000 roots to seek:    24 dimension of matrix:        23104
 Iteration     1 Dimension    24 NMult     0 NNew     24
 CISAX will form    24 AO SS matrices at one time.
 NMat=    24 NSing=    24 JSym2X= 0.
 FoFJK:  IHMeth= 1 ICntrl=       0 DoSepK=T KAlg= 0 I1Cent=           0 FoldK=F
 IRaf=         1 NMat=      48 IRICut=       1 DoRegI=T DoRafI=F ISym2E= 0 IDoP0=3 IntGTp=3.
 FoFCou: FMM=F IPFlag=           0 FMFlag=      100000 FMFlg1=           0
         NFxFlg=           0 DoJE=F BraDBF=F KetDBF=F FulRan=T
         wScrn=  0.000000 ICntrl=       500 IOpCl=  0 I1Cent=           0 NGrid=           0
         NMat0=   24 NMatS0=     24 NMatT0=    0 NMatD0=   24 NMtDS0=    0 NMtDT0=    0
 Symmetry not used in FoFCou.
 New state      2 was old state      3
 New state      3 was old state      4
 New state      4 was old state      2
 New state      5 was old state      6
 New state      6 was old state      5
 Excitation Energies [eV] at current iteration:
 Root      1 :     3.733783629195741
 Root      2 :     4.280796538378487
 Root      3 :     4.474946558988592
 Root      4 :     5.451185771414013
 Root      5 :     6.073456858570917
 Root      6 :     6.263110001394978
 Root      7 :     6.628513888870597
 Root      8 :     6.754993657053472
 Root      9 :     6.976614090370679
 Root     10 :     7.006925224762663
 Root     11 :     7.204471136643738
 Root     12 :     7.360383599361089
 Root     13 :     7.501301504713607
 Root     14 :     7.593345379298384
 Root     15 :     7.761018097593017
 Root     16 :     7.884214602502395
 Root     17 :     8.093927942204154
 Root     18 :     8.173320899017337
 Root     19 :     8.257657303855293
 Root     20 :     8.513790234428496
 Root     21 :     8.630168074048918
 Root     22 :     8.811149062799712
 Root     23 :     8.948925598638665
 Root     24 :     9.130479983780667
 Iteration     2 Dimension    36 NMult    24 NNew     12
 CISAX will form    12 AO SS matrices at one time.
 NMat=    12 NSing=    12 JSym2X= 0.
 Root      1 not converged, maximum delta is    0.046425630066524
 Root      2 not converged, maximum delta is    0.074760402531823
 Root      3 not converged, maximum delta is    0.092615913025888
 Root      4 not converged, maximum delta is    0.335155401750433
 New state      5 was old state      6
 Root      5 not converged, maximum delta is    0.340328196246110
 New state      6 was old state      5
 Root      6 not converged, maximum delta is    0.233506327008460
 Excitation Energies [eV] at current iteration:
 Root      1 :     3.303211618479030   Change is   -0.430572010716710
 Root      2 :     4.052167917480515   Change is   -0.228628620897973
 Root      3 :     4.205064852216025   Change is   -0.269881706772568
 Root      4 :     5.044938704119251   Change is   -0.406247067294762
 Root      5 :     5.511754726615615   Change is   -0.751355274779363
 Root      6 :     5.952211605079792   Change is   -0.121245253491125
 Iteration     3 Dimension    48 NMult    36 NNew     12
 CISAX will form    12 AO SS matrices at one time.
 NMat=    12 NSing=    12 JSym2X= 0.
 Root      1 not converged, maximum delta is    0.007217108414781
 Root      2 not converged, maximum delta is    0.014598396025419
 Root      3 not converged, maximum delta is    0.013575384878620
 Root      4 not converged, maximum delta is    0.013479907383945
 Root      5 not converged, maximum delta is    0.013811484681769
 Root      6 not converged, maximum delta is    0.019829564332074
 Excitation Energies [eV] at current iteration:
 Root      1 :     3.288369344236666   Change is   -0.014842274242365
 Root      2 :     4.039051367968866   Change is   -0.013116549511649
 Root      3 :     4.191140707541921   Change is   -0.013924144674104
 Root      4 :     5.024720182732210   Change is   -0.020218521387041
 Root      5 :     5.493862148849847   Change is   -0.017892577765767
 Root      6 :     5.941963084347932   Change is   -0.010248520731860
 Iteration     4 Dimension    60 NMult    48 NNew     12
 CISAX will form    12 AO SS matrices at one time.
 NMat=    12 NSing=    12 JSym2X= 0.
 Root      1 not converged, maximum delta is    0.002116424525548
 Root      2 not converged, maximum delta is    0.001990516265857
 Root      3 not converged, maximum delta is    0.002257774313961
 Root      4 not converged, maximum delta is    0.003059586096098
 Root      5 not converged, maximum delta is    0.002654757134086
 Root      6 not converged, maximum delta is    0.004041780702312
 Excitation Energies [eV] at current iteration:
 Root      1 :     3.287161835282726   Change is   -0.001207508953940
 Root      2 :     4.038295224506419   Change is   -0.000756143462447
 Root      3 :     4.190266275298876   Change is   -0.000874432243044
 Root      4 :     5.023040560679869   Change is   -0.001679622052342
 Root      5 :     5.492197442310208   Change is   -0.001664706539640
 Root      6 :     5.941249279692560   Change is   -0.000713804655371
 Iteration     5 Dimension    72 NMult    60 NNew     12
 CISAX will form    12 AO SS matrices at one time.
 NMat=    12 NSing=    12 JSym2X= 0.
 Root      1 has converged.
 Root      2 has converged.
 Root      3 has converged.
 Root      4 has converged.
 Root      5 not converged, maximum delta is    0.001065385838054
 Root      6 has converged.
 Excitation Energies [eV] at current iteration:
 Root      1 :     3.287105134195329   Change is   -0.000056701087397
 Root      2 :     4.038252876885164   Change is   -0.000042347621254
 Root      3 :     4.190221386099694   Change is   -0.000044889199182
 Root      4 :     5.022911060563000   Change is   -0.000129500116869
 Root      5 :     5.492044694801533   Change is   -0.000152747508675
 Root      6 :     5.941202455999226   Change is   -0.000046823693334
 Iteration     6 Dimension    74 NMult    72 NNew      2
 CISAX will form     2 AO SS matrices at one time.
 NMat=     2 NSing=     2 JSym2X= 0.
 Root      1 has converged.
 Root      2 has converged.
 Root      3 has converged.
 Root      4 has converged.
 Root      5 has converged.
 Root      6 has converged.
 Excitation Energies [eV] at current iteration:
 Root      1 :     3.287105114956335   Change is   -0.000000019238995
 Root      2 :     4.038252836605454   Change is   -0.000000040279710
 Root      3 :     4.190221307319822   Change is   -0.000000078779872
 Root      4 :     5.022909175834545   Change is   -0.000001884728454
 Root      5 :     5.492033548704110   Change is   -0.000011146097423
 Root      6 :     5.941202343958862   Change is   -0.000000112040364
 Convergence achieved on expansion vectors.
 ***********************************************************************
 Excited states from <AA,BB:AA,BB> singles matrix:
 ***********************************************************************
 
 1PDM for each excited state written to RWF  633
 Ground to excited state transition densities written to RWF  633
 Ground to excited state transition electric dipole moments (Au):
       state          X           Y           Z        Dip. S.      Osc.
         1        -1.6180      0.1931      0.0503      2.6579      0.2140
         2        -0.1087     -0.0202      0.0424      0.0140      0.0014
         3        -0.0255      0.1387     -0.0327      0.0210      0.0022
         4        -0.1960     -1.7519      0.1107      3.1199      0.3839
         5        -0.0602     -1.4968      0.0192      2.2443      0.3020
         6         0.0274      0.2367      0.0619      0.0606      0.0088
 Ground to excited state transition velocity dipole moments (Au):
       state          X           Y           Z        Dip. S.      Osc.
         1         0.1875     -0.0187     -0.0067      0.0355      0.1961
         2         0.0155      0.0033     -0.0034      0.0003      0.0012
         3         0.0038     -0.0197      0.0015      0.0004      0.0018
         4         0.0391      0.3098     -0.0161      0.0977      0.3530
         5         0.0126      0.2964     -0.0049      0.0881      0.2909
         6        -0.0067     -0.0485     -0.0332      0.0035      0.0107
 Ground to excited state transition magnetic dipole moments (Au):
       state          X           Y           Z
         1        -0.0625      0.0272     -1.4536
         2         0.8034     -0.1271     -0.2751
         3         0.1749     -0.9930     -0.1975
         4         0.0533     -0.0980      0.0772
         5         0.1768     -0.1054      0.2879
         6        -0.0110     -0.0125      0.0197
 Ground to excited state transition velocity quadrupole moments (Au):
       state          XX          YY          ZZ          XY          XZ          YZ
         1        -0.1712      0.0977      0.0030     -0.5291      0.0520      0.0147
         2         0.0093     -0.0066     -0.0019     -0.0436      0.0144      0.0841
         3         0.0022     -0.0052      0.0255     -0.0569      0.0652      0.0094
         4        -1.2983      0.2994     -0.0002      0.0818      0.0861     -0.0484
         5        -0.5013      0.2723      0.0471      0.2296      0.0680      0.0288
         6        -0.2112     -0.1961      0.1705      0.0155      0.0334      0.0630
 <0|del|b> * <b|rxdel|0> + <0|del|b> * <b|delr+rdel|0>
 Rotatory Strengths (R) in cgs (10**-40 erg-esu-cm/Gauss)
       state          XX          YY          ZZ    R(velocity)    E-M Angle
         1        40.4301     -8.0301    -46.7171     -4.7724       90.51
         2         1.4571     34.5455     25.5867     20.5298       21.38
         3        46.9870      1.1119     43.4326     30.5105       15.50
         4      -114.1573      0.5024      0.5822    -37.6909      134.10
         5       -94.4376      4.0356    -16.1453    -35.5157      106.83
         6         1.7069     -0.7913     -0.8410      0.0248       90.00
 1/2[<0|r|b>*<b|rxdel|0> + (<0|rxdel|b>*<b|r|0>)*]
 Rotatory Strengths (R) in cgs (10**-40 erg-esu-cm/Gauss)
       state          XX          YY          ZZ     R(length)
         1       -71.5624     -3.7114     51.7277     -7.8487
         2        61.7779     -1.8180      8.2576     22.7392
         3         3.1508     97.4111     -4.5645     31.9991
         4         7.3829   -121.3954     -6.0489    -40.0205
         5         7.5316   -111.5252     -3.9131    -35.9689
         6         0.2140      2.0857     -0.8639      0.4786
  1/2[<0|del|b>*<b|r|0> + (<0|r|b>*<b|del|0>)*] (Au)
       state          X           Y           Z        Dip. S.   Osc.(frdel)
         1        -0.3033     -0.0036     -0.0003      0.3073      0.2049
         2        -0.0017     -0.0001     -0.0001      0.0019      0.0013
         3        -0.0001     -0.0027     -0.0001      0.0029      0.0019
         4        -0.0077     -0.5427     -0.0018      0.5521      0.3681
         5        -0.0008     -0.4437     -0.0001      0.4446      0.2964
         6        -0.0002     -0.0115     -0.0021      0.0137      0.0091

 Excitation energies and oscillator strengths:
 
 Excited State   1:      Singlet-A      3.2871 eV  377.18 nm  f=0.2140  <S**2>=0.000
      52 -> 53         0.69984
 This state for optimization and/or second-order correction.
 Total Energy, E(TD-HF/TD-DFT) =  -633.206764691    
 Copying the excited state density for this state as the 1-particle RhoCI density.
 
 Excited State   2:      Singlet-A      4.0383 eV  307.02 nm  f=0.0014  <S**2>=0.000
      50 -> 54         0.18695
      51 -> 53         0.57095
      51 -> 54         0.32574
 
 Excited State   3:      Singlet-A      4.1902 eV  295.89 nm  f=0.0022  <S**2>=0.000
      49 -> 53         0.21344
      49 -> 54        -0.14076
      50 -> 53         0.54049
      50 -> 54        -0.25821
      50 -> 58         0.11361
      51 -> 54         0.20683
 
 Excited State   4:      Singlet-A      5.0229 eV  246.84 nm  f=0.3839  <S**2>=0.000
      52 -> 54         0.69398
 
 Excited State   5:      Singlet-A      5.4920 eV  225.75 nm  f=0.3020  <S**2>=0.000
      49 -> 53         0.62866
      50 -> 53        -0.25105
      51 -> 53         0.12338
 
 Excited State   6:      Singlet-A      5.9412 eV  208.69 nm  f=0.0088  <S**2>=0.000
      52 -> 55         0.65631
      52 -> 56         0.15585
 SavETr:  write IOETrn=   770 NScale= 10 NData=  16 NLR=1 NState=    6 LETran=     118.
 Leave Link  914 at Fri Jan 23 16:10:01 2026, MaxMem=  2147483648 cpu:            2045.5 elap:             128.3
 (Enter /data/home/wyx/g16/l601.exe)
 Copying SCF densities to generalized density rwf, IOpCl= 0 IROHF=0.

 **********************************************************************

            Population analysis using the SCF density.

 **********************************************************************

 Orbital symmetries:
       Occupied  (A) (A) (A) (A) (A) (A) (A) (A) (A) (A) (A) (A)
                 (A) (A) (A) (A) (A) (A) (A) (A) (A) (A) (A) (A)
                 (A) (A) (A) (A) (A) (A) (A) (A) (A) (A) (A) (A)
                 (A) (A) (A) (A) (A) (A) (A) (A) (A) (A) (A) (A)
                 (A) (A) (A) (A)
       Virtual   (A) (A) (A) (A) (A) (A) (A) (A) (A) (A) (A) (A)
                 (A) (A) (A) (A) (A) (A) (A) (A) (A) (A) (A) (A)
                 (A) (A) (A) (A) (A) (A) (A) (A) (A) (A) (A) (A)
                 (A) (A) (A) (A) (A) (A) (A) (A) (A) (A) (A) (A)
                 (A) (A) (A) (A) (A) (A) (A) (A) (A) (A) (A) (A)
                 (A) (A) (A) (A) (A) (A) (A) (A) (A) (A) (A) (A)
                 (A) (A) (A) (A) (A) (A) (A) (A) (A) (A) (A) (A)
                 (A) (A) (A) (A) (A) (A) (A) (A) (A) (A) (A) (A)
                 (A) (A) (A) (A) (A) (A) (A) (A) (A) (A) (A) (A)
                 (A) (A) (A) (A) (A) (A) (A) (A) (A) (A) (A) (A)
                 (A) (A) (A) (A) (A) (A) (A) (A) (A) (A) (A) (A)
                 (A) (A) (A) (A) (A) (A) (A) (A) (A) (A) (A) (A)
                 (A) (A) (A) (A) (A) (A) (A) (A) (A) (A) (A) (A)
                 (A) (A) (A) (A) (A) (A) (A) (A) (A) (A) (A) (A)
                 (A) (A) (A) (A) (A) (A) (A) (A) (A) (A) (A) (A)
                 (A) (A) (A) (A) (A) (A) (A) (A) (A) (A) (A) (A)
                 (A) (A) (A) (A) (A) (A) (A) (A) (A) (A) (A) (A)
                 (A) (A) (A) (A) (A) (A) (A) (A) (A) (A) (A) (A)
                 (A) (A) (A) (A) (A) (A) (A) (A) (A) (A) (A) (A)
                 (A) (A) (A) (A) (A) (A) (A) (A) (A) (A) (A) (A)
                 (A) (A) (A) (A) (A) (A) (A) (A) (A) (A) (A) (A)
                 (A) (A) (A) (A) (A) (A) (A) (A) (A) (A) (A) (A)
                 (A) (A) (A) (A) (A) (A) (A) (A) (A) (A) (A) (A)
                 (A) (A) (A) (A) (A) (A) (A) (A) (A) (A) (A) (A)
                 (A) (A) (A) (A) (A) (A) (A) (A) (A) (A) (A) (A)
                 (A) (A) (A) (A)
 The electronic state is 1-A.
 Alpha  occ. eigenvalues --  -19.17839 -19.17167 -14.44324 -10.33396 -10.32896
 Alpha  occ. eigenvalues --  -10.32275 -10.31675 -10.26004 -10.25158 -10.24846
 Alpha  occ. eigenvalues --  -10.24649 -10.24528 -10.24250 -10.23599  -1.11832
 Alpha  occ. eigenvalues --   -1.11360  -1.07867  -0.91346  -0.90363  -0.83902
 Alpha  occ. eigenvalues --   -0.82614  -0.81662  -0.78553  -0.73978  -0.71523
 Alpha  occ. eigenvalues --   -0.68632  -0.61614  -0.58272  -0.56872  -0.55191
 Alpha  occ. eigenvalues --   -0.54616  -0.54008  -0.52597  -0.51895  -0.50827
 Alpha  occ. eigenvalues --   -0.49900  -0.49539  -0.49212  -0.48643  -0.48130
 Alpha  occ. eigenvalues --   -0.46981  -0.45292  -0.45169  -0.43626  -0.43128
 Alpha  occ. eigenvalues --   -0.42327  -0.42155  -0.41843  -0.32753  -0.32195
 Alpha  occ. eigenvalues --   -0.31178  -0.25798
 Alpha virt. eigenvalues --   -0.02568   0.02558   0.06280   0.08064   0.08476
 Alpha virt. eigenvalues --    0.09961   0.10733   0.11853   0.12589   0.13516
 Alpha virt. eigenvalues --    0.14066   0.14859   0.15620   0.16194   0.16921
 Alpha virt. eigenvalues --    0.17545   0.17845   0.18007   0.18162   0.19203
 Alpha virt. eigenvalues --    0.19923   0.22101   0.22807   0.23430   0.23749
 Alpha virt. eigenvalues --    0.23935   0.24829   0.25616   0.26077   0.26535
 Alpha virt. eigenvalues --    0.26981   0.27595   0.28915   0.28973   0.30125
 Alpha virt. eigenvalues --    0.31701   0.31965   0.32557   0.33564   0.34412
 Alpha virt. eigenvalues --    0.35161   0.35995   0.36693   0.38155   0.38677
 Alpha virt. eigenvalues --    0.39922   0.40985   0.41581   0.42089   0.42632
 Alpha virt. eigenvalues --    0.44017   0.44470   0.45519   0.46125   0.46296
 Alpha virt. eigenvalues --    0.47291   0.47714   0.48125   0.48228   0.49084
 Alpha virt. eigenvalues --    0.49481   0.50528   0.50879   0.51409   0.51668
 Alpha virt. eigenvalues --    0.52792   0.53127   0.53421   0.54100   0.54292
 Alpha virt. eigenvalues --    0.54533   0.55787   0.56167   0.56598   0.58320
 Alpha virt. eigenvalues --    0.58724   0.59139   0.60901   0.61078   0.62769
 Alpha virt. eigenvalues --    0.63456   0.65738   0.66238   0.66456   0.67954
 Alpha virt. eigenvalues --    0.68622   0.70093   0.71167   0.72136   0.72819
 Alpha virt. eigenvalues --    0.73237   0.73993   0.74773   0.75944   0.77850
 Alpha virt. eigenvalues --    0.78464   0.79845   0.82438   0.85066   0.85643
 Alpha virt. eigenvalues --    0.89837   0.93797   1.00398   1.01919   1.23798
 Alpha virt. eigenvalues --    1.25354   1.27108   1.27865   1.29442   1.31374
 Alpha virt. eigenvalues --    1.32608   1.32980   1.34050   1.34887   1.36069
 Alpha virt. eigenvalues --    1.36499   1.37392   1.38325   1.39107   1.39910
 Alpha virt. eigenvalues --    1.40016   1.40417   1.40921   1.41485   1.41768
 Alpha virt. eigenvalues --    1.43395   1.44097   1.44363   1.45131   1.47195
 Alpha virt. eigenvalues --    1.48082   1.49349   1.49657   1.50374   1.51141
 Alpha virt. eigenvalues --    1.51796   1.52442   1.53284   1.54692   1.57883
 Alpha virt. eigenvalues --    1.58417   1.60662   1.60708   1.61371   1.62361
 Alpha virt. eigenvalues --    1.62728   1.63389   1.64179   1.64875   1.65770
 Alpha virt. eigenvalues --    1.66896   1.67266   1.67693   1.68302   1.68460
 Alpha virt. eigenvalues --    1.68826   1.69885   1.70343   1.71732   1.72327
 Alpha virt. eigenvalues --    1.73641   1.75190   1.76133   1.76602   1.78788
 Alpha virt. eigenvalues --    1.80471   1.83009   1.84245   1.86086   1.86555
 Alpha virt. eigenvalues --    1.86862   1.87621   1.88561   1.88968   1.90701
 Alpha virt. eigenvalues --    1.91244   1.94574   1.95144   1.98618   1.99766
 Alpha virt. eigenvalues --    2.01117   2.03874   2.04909   2.06651   2.09559
 Alpha virt. eigenvalues --    2.11091   2.12704   2.14841   2.17141   2.19609
 Alpha virt. eigenvalues --    2.20213   2.21372   2.21905   2.22924   2.26099
 Alpha virt. eigenvalues --    2.27167   2.27564   2.29265   2.31030   2.31932
 Alpha virt. eigenvalues --    2.33534   2.34499   2.36658   2.37459   2.38272
 Alpha virt. eigenvalues --    2.39525   2.40263   2.41636   2.43440   2.44911
 Alpha virt. eigenvalues --    2.46047   2.47886   2.50171   2.50666   2.51778
 Alpha virt. eigenvalues --    2.52270   2.53863   2.54976   2.56795   2.58331
 Alpha virt. eigenvalues --    2.59025   2.60414   2.61385   2.62374   2.62899
 Alpha virt. eigenvalues --    2.64537   2.65822   2.66945   2.67434   2.68905
 Alpha virt. eigenvalues --    2.71563   2.72021   2.72955   2.73858   2.75280
 Alpha virt. eigenvalues --    2.76000   2.76577   2.77416   2.78032   2.79455
 Alpha virt. eigenvalues --    2.80710   2.81737   2.83404   2.83713   2.84513
 Alpha virt. eigenvalues --    2.85592   2.86359   2.88158   2.90060   2.91864
 Alpha virt. eigenvalues --    2.97739   2.99958   3.00751   3.04835   3.10631
 Alpha virt. eigenvalues --    3.12400   3.15736   3.16984   3.17633   3.20850
 Alpha virt. eigenvalues --    3.21470   3.22768   3.24745   3.26274   3.27179
 Alpha virt. eigenvalues --    3.27645   3.29858   3.33422   3.34653   3.36683
 Alpha virt. eigenvalues --    3.37327   3.38836   3.39895   3.40330   3.41848
 Alpha virt. eigenvalues --    3.42515   3.44742   3.45517   3.47155   3.48111
 Alpha virt. eigenvalues --    3.49235   3.49651   3.55236   3.58473   3.59942
 Alpha virt. eigenvalues --    3.60634   3.90416   3.99999   4.34156   4.36499
 Alpha virt. eigenvalues --   21.64862  21.80016  22.08409  22.10978  22.11856
 Alpha virt. eigenvalues --   22.14941  22.15344  22.18702  22.20571  22.24774
 Alpha virt. eigenvalues --   22.29606  31.92583  43.63347  43.65973
          Condensed to atoms (all electrons):
               1          2          3          4          5          6
     1  O    7.933213   0.000000  -0.000221   0.000019   0.017405   0.014749
     2  O    0.000000   7.969810   0.000459   0.000029  -0.198228   0.001047
     3  N   -0.000221   0.000459   6.394854   0.373045  -0.117492   0.327021
     4  H    0.000019   0.000029   0.373045   0.411707   0.016897  -0.047260
     5  C    0.017405  -0.198228  -0.117492   0.016897   7.023023  -0.066166
     6  C    0.014749   0.001047   0.327021  -0.047260  -0.066166   5.616256
     7  C   -0.000377  -0.038295   0.382202  -0.039390   0.405470  -0.103892
     8  C   -0.000318   0.710984   0.004693  -0.000699  -0.260753   0.027917
     9  C   -0.020003   0.020631   0.013214  -0.000154  -0.553854  -0.098000
    10  H    0.013805  -0.000016  -0.001320   0.000020  -0.114757   0.026351
    11  H    0.004617   0.000113   0.003889   0.000019  -0.034186  -0.017553
    12  C   -0.221703  -0.002498  -0.090466   0.014715   0.159404  -0.153190
    13  C    0.712478  -0.000024   0.000891   0.000450   0.077779   0.165333
    14  C   -0.000006  -0.007458  -0.035030  -0.009470  -0.078865   0.010570
    15  H   -0.000000   0.004291   0.003692   0.001694   0.019204   0.006527
    16  H   -0.000000   0.001767   0.000890   0.000771  -0.008527  -0.000929
    17  H   -0.000000   0.001933  -0.002735   0.000919  -0.005582  -0.001830
    18  C    0.000020  -0.105241  -0.000558   0.000020  -0.269964   0.000479
    19  H   -0.000003   0.008851   0.000002  -0.000001   0.024269   0.000027
    20  H    0.000096   0.003712   0.000121   0.000001   0.042735  -0.001148
    21  H    0.000011   0.001009   0.000012  -0.000001   0.004356   0.000239
    22  C   -0.106307   0.000000  -0.000071   0.000120   0.004294  -0.012430
    23  H    0.001256   0.000000  -0.000021  -0.000015  -0.000061   0.010797
    24  H    0.004798  -0.000000   0.000003  -0.000053  -0.000624  -0.032506
    25  H    0.007343   0.000000   0.000029  -0.000002  -0.000150  -0.001132
    26  C    0.000898   0.000005  -0.029130  -0.005919   0.000307   0.178018
    27  H   -0.000048  -0.000000  -0.002496   0.000445   0.000391  -0.034914
    28  H   -0.000249  -0.000000   0.002539   0.000842  -0.000003  -0.045152
    29  H    0.000025  -0.000000   0.000862   0.001269  -0.000476  -0.050369
               7          8          9         10         11         12
     1  O   -0.000377  -0.000318  -0.020003   0.013805   0.004617  -0.221703
     2  O   -0.038295   0.710984   0.020631  -0.000016   0.000113  -0.002498
     3  N    0.382202   0.004693   0.013214  -0.001320   0.003889  -0.090466
     4  H   -0.039390  -0.000699  -0.000154   0.000020   0.000019   0.014715
     5  C    0.405470  -0.260753  -0.553854  -0.114757  -0.034186   0.159404
     6  C   -0.103892   0.027917  -0.098000   0.026351  -0.017553  -0.153190
     7  C    5.413395  -0.195913  -0.182856   0.018035  -0.005613   0.008323
     8  C   -0.195913   5.349852   0.118077  -0.009597  -0.003576  -0.036383
     9  C   -0.182856   0.118077   6.320284   0.536860   0.394456  -0.027815
    10  H    0.018035  -0.009597   0.536860   0.510598  -0.038664  -0.108722
    11  H   -0.005613  -0.003576   0.394456  -0.038664   0.563242  -0.016550
    12  C    0.008323  -0.036383  -0.027815  -0.108722  -0.016550   7.294839
    13  C    0.012982  -0.006514  -0.256769  -0.001470  -0.001582  -0.408658
    14  C    0.269221  -0.035149   0.010009   0.000553  -0.001262  -0.003626
    15  H   -0.078854   0.005547   0.000171  -0.000004   0.000061  -0.001334
    16  H   -0.027032  -0.007300  -0.000528  -0.000053   0.000191  -0.000003
    17  H   -0.022445  -0.002093   0.000730   0.000053  -0.000065   0.000759
    18  C    0.001630   0.318044   0.002219   0.008259  -0.010148  -0.003720
    19  H    0.000319  -0.052498  -0.000687   0.000573  -0.000014  -0.000188
    20  H    0.001742  -0.064816  -0.009597  -0.005734   0.002465   0.007113
    21  H    0.000484  -0.025617  -0.009461  -0.001897   0.000914  -0.003319
    22  C   -0.000000  -0.000057   0.004991   0.000584   0.001920  -0.256946
    23  H    0.000018   0.000003  -0.002165  -0.000117   0.000157  -0.011453
    24  H    0.000006  -0.000006   0.003394  -0.000032  -0.000146   0.066712
    25  H    0.000008   0.000003   0.000203  -0.000116  -0.000050   0.021900
    26  C    0.002518   0.000553   0.020853   0.000053  -0.000732  -0.079191
    27  H   -0.000790  -0.000010  -0.000216   0.000043  -0.000021  -0.019408
    28  H   -0.000758   0.000002  -0.000584   0.000007  -0.000108  -0.007792
    29  H    0.003547  -0.000006  -0.000580  -0.000012   0.000105   0.023800
              13         14         15         16         17         18
     1  O    0.712478  -0.000006  -0.000000  -0.000000  -0.000000   0.000020
     2  O   -0.000024  -0.007458   0.004291   0.001767   0.001933  -0.105241
     3  N    0.000891  -0.035030   0.003692   0.000890  -0.002735  -0.000558
     4  H    0.000450  -0.009470   0.001694   0.000771   0.000919   0.000020
     5  C    0.077779  -0.078865   0.019204  -0.008527  -0.005582  -0.269964
     6  C    0.165333   0.010570   0.006527  -0.000929  -0.001830   0.000479
     7  C    0.012982   0.269221  -0.078854  -0.027032  -0.022445   0.001630
     8  C   -0.006514  -0.035149   0.005547  -0.007300  -0.002093   0.318044
     9  C   -0.256769   0.010009   0.000171  -0.000528   0.000730   0.002219
    10  H   -0.001470   0.000553  -0.000004  -0.000053   0.000053   0.008259
    11  H   -0.001582  -0.001262   0.000061   0.000191  -0.000065  -0.010148
    12  C   -0.408658  -0.003626  -0.001334  -0.000003   0.000759  -0.003720
    13  C    5.462405  -0.000003  -0.000026  -0.000002  -0.000015   0.000722
    14  C   -0.000003   5.051647   0.387211   0.422300   0.408911   0.001588
    15  H   -0.000026   0.387211   0.581924  -0.028003  -0.026379   0.000278
    16  H   -0.000002   0.422300  -0.028003   0.507502  -0.026118  -0.000220
    17  H   -0.000015   0.408911  -0.026379  -0.026118   0.508536  -0.000035
    18  C    0.000722   0.001588   0.000278  -0.000220  -0.000035   5.348076
    19  H   -0.000013   0.000055  -0.000005   0.000031  -0.000025   0.392896
    20  H    0.000580   0.000050  -0.000016  -0.000036   0.000004   0.379793
    21  H   -0.000093  -0.000263  -0.000006   0.000022  -0.000007   0.397876
    22  C    0.285584  -0.000021   0.000002  -0.000000   0.000000   0.000029
    23  H   -0.022364  -0.000001   0.000000  -0.000000   0.000000  -0.000002
    24  H   -0.094031   0.000000   0.000000   0.000000   0.000000   0.000003
    25  H   -0.039162   0.000000   0.000000   0.000000  -0.000000  -0.000001
    26  C   -0.053564   0.001191   0.000122   0.000051  -0.000154   0.000022
    27  H    0.006438  -0.000113  -0.000000   0.000004  -0.000009  -0.000001
    28  H   -0.004349   0.000087  -0.000011  -0.000001   0.000001  -0.000000
    29  H   -0.000811  -0.000245   0.000115  -0.000004   0.000002   0.000000
              19         20         21         22         23         24
     1  O   -0.000003   0.000096   0.000011  -0.106307   0.001256   0.004798
     2  O    0.008851   0.003712   0.001009   0.000000   0.000000  -0.000000
     3  N    0.000002   0.000121   0.000012  -0.000071  -0.000021   0.000003
     4  H   -0.000001   0.000001  -0.000001   0.000120  -0.000015  -0.000053
     5  C    0.024269   0.042735   0.004356   0.004294  -0.000061  -0.000624
     6  C    0.000027  -0.001148   0.000239  -0.012430   0.010797  -0.032506
     7  C    0.000319   0.001742   0.000484  -0.000000   0.000018   0.000006
     8  C   -0.052498  -0.064816  -0.025617  -0.000057   0.000003  -0.000006
     9  C   -0.000687  -0.009597  -0.009461   0.004991  -0.002165   0.003394
    10  H    0.000573  -0.005734  -0.001897   0.000584  -0.000117  -0.000032
    11  H   -0.000014   0.002465   0.000914   0.001920   0.000157  -0.000146
    12  C   -0.000188   0.007113  -0.003319  -0.256946  -0.011453   0.066712
    13  C   -0.000013   0.000580  -0.000093   0.285584  -0.022364  -0.094031
    14  C    0.000055   0.000050  -0.000263  -0.000021  -0.000001   0.000000
    15  H   -0.000005  -0.000016  -0.000006   0.000002   0.000000   0.000000
    16  H    0.000031  -0.000036   0.000022  -0.000000  -0.000000   0.000000
    17  H   -0.000025   0.000004  -0.000007   0.000000   0.000000   0.000000
    18  C    0.392896   0.379793   0.397876   0.000029  -0.000002   0.000003
    19  H    0.505127  -0.022752  -0.009738  -0.000000   0.000000   0.000000
    20  H   -0.022752   0.539377  -0.025702   0.000019  -0.000000  -0.000000
    21  H   -0.009738  -0.025702   0.498857  -0.000013   0.000000  -0.000000
    22  C   -0.000000   0.000019  -0.000013   5.421086   0.400885   0.397920
    23  H    0.000000  -0.000000   0.000000   0.400885   0.494586  -0.027512
    24  H    0.000000  -0.000000  -0.000000   0.397920  -0.027512   0.543572
    25  H   -0.000000  -0.000000   0.000000   0.384708  -0.007692  -0.022097
    26  C    0.000000  -0.000016   0.000005  -0.028747  -0.013833   0.016322
    27  H    0.000000  -0.000000  -0.000000  -0.010844   0.001060  -0.001535
    28  H   -0.000000  -0.000000   0.000000   0.007397  -0.000328  -0.009488
    29  H    0.000000   0.000000  -0.000000   0.001988   0.000211   0.000698
              25         26         27         28         29
     1  O    0.007343   0.000898  -0.000048  -0.000249   0.000025
     2  O    0.000000   0.000005  -0.000000  -0.000000  -0.000000
     3  N    0.000029  -0.029130  -0.002496   0.002539   0.000862
     4  H   -0.000002  -0.005919   0.000445   0.000842   0.001269
     5  C   -0.000150   0.000307   0.000391  -0.000003  -0.000476
     6  C   -0.001132   0.178018  -0.034914  -0.045152  -0.050369
     7  C    0.000008   0.002518  -0.000790  -0.000758   0.003547
     8  C    0.000003   0.000553  -0.000010   0.000002  -0.000006
     9  C    0.000203   0.020853  -0.000216  -0.000584  -0.000580
    10  H   -0.000116   0.000053   0.000043   0.000007  -0.000012
    11  H   -0.000050  -0.000732  -0.000021  -0.000108   0.000105
    12  C    0.021900  -0.079191  -0.019408  -0.007792   0.023800
    13  C   -0.039162  -0.053564   0.006438  -0.004349  -0.000811
    14  C    0.000000   0.001191  -0.000113   0.000087  -0.000245
    15  H    0.000000   0.000122  -0.000000  -0.000011   0.000115
    16  H    0.000000   0.000051   0.000004  -0.000001  -0.000004
    17  H   -0.000000  -0.000154  -0.000009   0.000001   0.000002
    18  C   -0.000001   0.000022  -0.000001  -0.000000   0.000000
    19  H   -0.000000   0.000000   0.000000  -0.000000   0.000000
    20  H   -0.000000  -0.000016  -0.000000  -0.000000   0.000000
    21  H    0.000000   0.000005  -0.000000   0.000000  -0.000000
    22  C    0.384708  -0.028747  -0.010844   0.007397   0.001988
    23  H   -0.007692  -0.013833   0.001060  -0.000328   0.000211
    24  H   -0.022097   0.016322  -0.001535  -0.009488   0.000698
    25  H    0.492252   0.001820   0.000107   0.000785  -0.000041
    26  C    0.001820   5.254373   0.429331   0.428056   0.389983
    27  H    0.000107   0.429331   0.480341  -0.025572  -0.018766
    28  H    0.000785   0.428056  -0.025572   0.508355  -0.026333
    29  H   -0.000041   0.389983  -0.018766  -0.026333   0.521499
 Mulliken charges:
               1
     1  O   -0.361499
     2  O   -0.372880
     3  N   -0.228880
     4  H    0.279982
     5  C   -0.085845
     6  C    0.281141
     7  C    0.176318
     8  C    0.165627
     9  C   -0.282823
    10  H    0.166716
    11  H    0.158121
    12  C   -0.144599
    13  C    0.163806
    14  C   -0.391881
    15  H    0.123800
    16  H    0.165229
    17  H    0.165644
    18  C   -0.462063
    19  H    0.153772
    20  H    0.152010
    21  H    0.172333
    22  C   -0.496090
    23  H    0.176590
    24  H    0.154603
    25  H    0.161284
    26  C   -0.513196
    27  H    0.196582
    28  H    0.172659
    29  H    0.153540
 Sum of Mulliken charges =  -0.00000
 Mulliken charges with hydrogens summed into heavy atoms:
               1
     1  O   -0.361499
     2  O   -0.372880
     3  N    0.051102
     5  C   -0.085845
     6  C    0.281141
     7  C    0.176318
     8  C    0.165627
     9  C    0.042014
    12  C   -0.144599
    13  C    0.163806
    14  C    0.062792
    18  C    0.016051
    22  C   -0.003613
    26  C    0.009586
 Electronic spatial extent (au):  <R**2>=           3189.0792
 Charge=             -0.0000 electrons
 Dipole moment (field-independent basis, Debye):
    X=              3.8875    Y=              7.1503    Z=             -0.1439  Tot=              8.1400
 Quadrupole moment (field-independent basis, Debye-Ang):
   XX=            -97.4902   YY=            -78.5485   ZZ=            -84.9418
   XY=             12.2310   XZ=              4.9916   YZ=             -1.7609
 Traceless Quadrupole moment (field-independent basis, Debye-Ang):
   XX=            -10.4967   YY=              8.4450   ZZ=              2.0517
   XY=             12.2310   XZ=              4.9916   YZ=             -1.7609
 Octapole moment (field-independent basis, Debye-Ang**2):
  XXX=            106.3659  YYY=             61.9306  ZZZ=              1.8330  XYY=            -34.0740
  XXY=             29.8384  XXZ=             -8.3700  XZZ=              1.6625  YZZ=             -1.4481
  YYZ=              3.7707  XYZ=             -5.1679
 Hexadecapole moment (field-independent basis, Debye-Ang**3):
 XXXX=          -3029.0093 YYYY=          -1280.7373 ZZZZ=           -152.4500 XXXY=             33.9302
 XXXZ=             56.8651 YYYX=             85.9031 YYYZ=            -20.9185 ZZZX=             -3.1370
 ZZZY=              4.6239 XXYY=           -689.1958 XXZZ=           -483.3788 YYZZ=           -243.4117
 XXYZ=             -7.8292 YYXZ=              7.5374 ZZXY=             -1.1628
 N-N= 9.006936749039D+02 E-N=-3.277467100349D+03  KE= 6.307374022172D+02
 Leave Link  601 at Fri Jan 23 16:10:02 2026, MaxMem=  2147483648 cpu:               0.7 elap:               0.1
 (Enter /data/home/wyx/g16/l9999.exe)
 Electronic transition elements 
                 1             2             3             4             5 
      1  -0.633207D+03 -0.633179D+03 -0.633174D+03 -0.633143D+03 -0.633126D+03
      2  -0.158480D+01 -0.998847D-01 -0.662921D-01  0.386710D+00  0.439315D+00
      3  -0.362213D+00 -0.548351D-01  0.121368D+00 -0.171306D+01 -0.142892D+01
      4  -0.122894D+00  0.324205D-01 -0.428360D-01  0.189213D+00  0.975044D-01
      5   0.182498D+00  0.137447D-01  0.994197D-02 -0.646247D-01 -0.862795D-01
      6   0.454292D-01  0.826767D-02 -0.172416D-01  0.304453D+00  0.283204D+00
      7   0.131343D-01 -0.201353D-02  0.302229D-02 -0.295582D-01 -0.202914D-01
      8   0.970198D-01  0.825599D+00  0.516433D+00  0.737147D-01  0.167995D+00
      9  -0.238518D-01  0.145561D+00 -0.879717D+00 -0.727929D-01 -0.340104D-01
     10  -0.145177D+01 -0.185673D+00 -0.122692D+00  0.875936D-01  0.309623D+00
     11   0.180405D+00  0.378244D-01  0.239660D-01 -0.117777D+01 -0.563934D+00
     12  -0.267188D+00 -0.291792D-01 -0.392351D-01  0.169234D+00  0.331933D+00
     13   0.162225D-01 -0.784328D-02  0.377207D-01  0.935424D-02  0.500604D-01
     14  -0.494326D+00 -0.383153D-01 -0.438572D-01 -0.436441D+00 -0.714594D-01
     15   0.739777D-01 -0.932703D-02  0.589874D-01 -0.282640D-01 -0.138225D-01
     16  -0.194919D-01  0.807540D-01  0.272442D-01 -0.697829D-01  0.366170D-01
                 6 
      1  -0.633109D+03
      2  -0.600965D-01
      3   0.233257D+00
      4   0.509243D-01
      5   0.136023D-01
      6  -0.485390D-01
      7  -0.309368D-01
      8  -0.842842D-02
      9  -0.150653D-01
     10   0.191873D-01
     11  -0.216591D+00
     12  -0.185057D+00
     13   0.164901D+00
     14  -0.142380D-02
     15  -0.336891D-01
     16   0.778539D-01
 1\1\GINC-CN012\SP\RCAM-B3LYP TD-FC\TZVP\C11H15N1O2\WYX\23-Jan-2026\0\\
 #p CAM-B3LYP TZVP em=gd3bj td(Eqsolv,nstates=6,root=1) scrf=(Solvent=T
 etraHydroFuran) Geom=Check Guess=Read\\Title Card Required\\0,1\O,0,2.
 836832,-1.567195,0.12015\O,0,-3.422894,-1.628617,0.015858\N,0,-0.64313
 6,1.512703,-0.316036\H,0,-0.952955,2.470835,-0.368901\C,0,-1.240696,-0
 .758744,-0.217253\C,0,0.695026,1.308926,-0.083284\C,0,-1.618491,0.5552
 ,-0.27764\C,0,-2.220632,-1.83308,-0.122747\C,0,0.212755,-1.103549,-0.3
 08658\H,0,0.45117,-1.938208,0.351288\H,0,0.448154,-1.494127,-1.310067\
 C,0,1.150319,0.023657,0.001442\C,0,2.514342,-0.39597,0.310416\C,0,-3.0
 07478,1.092885,-0.311965\H,0,-3.009792,2.156926,-0.541857\H,0,-3.61275
 5,0.57366,-1.046856\H,0,-3.502717,0.949116,0.644992\C,0,-1.725627,-3.2
 52464,-0.189204\H,0,-2.565384,-3.923776,-0.32968\H,0,-1.007624,-3.4054
 13,-0.990465\H,0,-1.224877,-3.525203,0.738705\C,0,3.541426,0.539147,0.
 901073\H,0,4.053801,1.090261,0.110327\H,0,3.115932,1.25815,1.596249\H,
 0,4.282359,-0.068284,1.415649\C,0,1.467761,2.582942,0.03117\H,0,1.5740
 61,2.894015,1.070281\H,0,2.458425,2.500964,-0.39802\H,0,0.952695,3.385
 241,-0.494964\\Version=ES64L-G16RevA.03\State=1-A\HF=-633.3275636\RMSD
 =2.875e-09\PG=C01 [X(C11H15N1O2)]\\@


 Age does not diminish the extreme disappointment of
 having a scoop of ice cream fall from the cone.
 -- Jim Fiebig
 Job cpu time:       0 days  0 hours 35 minutes 42.3 seconds.
 Elapsed time:       0 days  0 hours  2 minutes 14.8 seconds.
 File lengths (MBytes):  RWF=    735 Int=      0 D2E=      0 Chk=     67 Scr=      1
 Normal termination of Gaussian 16 at Fri Jan 23 16:10:04 2026.
