 Entering Gaussian System, Link 0=g16
 Input=DDL-S1-cLR-gs-2.gjf
 Output=DDL-S1-cLR-gs-2.log
 Initial command:
 /data/home/wyx/g16/l1.exe "/scr/tmp/wyx/13106/Gau-1984199.inp" -scrdir="/scr/tmp/wyx/13106/"
 Entering Link 1 = /data/home/wyx/g16/l1.exe PID=   1984200.
  
 Copyright (c) 1988,1990,1992,1993,1995,1998,2003,2009,2016,
            Gaussian, Inc.  All Rights Reserved.
  
 This is part of the Gaussian(R) 16 program.  It is based on
 the Gaussian(R) 09 system (copyright 2009, Gaussian, Inc.),
 the Gaussian(R) 03 system (copyright 2003, Gaussian, Inc.),
 the Gaussian(R) 98 system (copyright 1998, Gaussian, Inc.),
 the Gaussian(R) 94 system (copyright 1995, Gaussian, Inc.),
 the Gaussian 92(TM) system (copyright 1992, Gaussian, Inc.),
 the Gaussian 90(TM) system (copyright 1990, Gaussian, Inc.),
 the Gaussian 88(TM) system (copyright 1988, Gaussian, Inc.),
 the Gaussian 86(TM) system (copyright 1986, Carnegie Mellon
 University), and the Gaussian 82(TM) system (copyright 1983,
 Carnegie Mellon University). Gaussian is a federally registered
 trademark of Gaussian, Inc.
  
 This software contains proprietary and confidential information,
 including trade secrets, belonging to Gaussian, Inc.
  
 This software is provided under written license and may be
 used, copied, transmitted, or stored only in accord with that
 written license.
  
 The following legend is applicable only to US Government
 contracts under FAR:
  
                    RESTRICTED RIGHTS LEGEND
  
 Use, reproduction and disclosure by the US Government is
 subject to restrictions as set forth in subparagraphs (a)
 and (c) of the Commercial Computer Software - Restricted
 Rights clause in FAR 52.227-19.
  
 Gaussian, Inc.
 340 Quinnipiac St., Bldg. 40, Wallingford CT 06492
  
  
 ---------------------------------------------------------------
 Warning -- This program may not be used in any manner that
 competes with the business of Gaussian, Inc. or will provide
 assistance to any competitor of Gaussian, Inc.  The licensee
 of this program is prohibited from giving any competitor of
 Gaussian, Inc. access to this program.  By using this program,
 the user acknowledges that Gaussian, Inc. is engaged in the
 business of creating and licensing software in the field of
 computational chemistry and represents and warrants to the
 licensee that it is not a competitor of Gaussian, Inc. and that
 it will not use this program in any manner prohibited above.
 ---------------------------------------------------------------
  

 Cite this work as:
 Gaussian 16, Revision A.03,
 M. J. Frisch, G. W. Trucks, H. B. Schlegel, G. E. Scuseria, 
 M. A. Robb, J. R. Cheeseman, G. Scalmani, V. Barone, 
 G. A. Petersson, H. Nakatsuji, X. Li, M. Caricato, A. V. Marenich, 
 J. Bloino, B. G. Janesko, R. Gomperts, B. Mennucci, H. P. Hratchian, 
 J. V. Ortiz, A. F. Izmaylov, J. L. Sonnenberg, D. Williams-Young, 
 F. Ding, F. Lipparini, F. Egidi, J. Goings, B. Peng, A. Petrone, 
 T. Henderson, D. Ranasinghe, V. G. Zakrzewski, J. Gao, N. Rega, 
 G. Zheng, W. Liang, M. Hada, M. Ehara, K. Toyota, R. Fukuda, 
 J. Hasegawa, M. Ishida, T. Nakajima, Y. Honda, O. Kitao, H. Nakai, 
 T. Vreven, K. Throssell, J. A. Montgomery, Jr., J. E. Peralta, 
 F. Ogliaro, M. J. Bearpark, J. J. Heyd, E. N. Brothers, K. N. Kudin, 
 V. N. Staroverov, T. A. Keith, R. Kobayashi, J. Normand, 
 K. Raghavachari, A. P. Rendell, J. C. Burant, S. S. Iyengar, 
 J. Tomasi, M. Cossi, J. M. Millam, M. Klene, C. Adamo, R. Cammi, 
 J. W. Ochterski, R. L. Martin, K. Morokuma, O. Farkas, 
 J. B. Foresman, and D. J. Fox, Gaussian, Inc., Wallingford CT, 2016.
 
 ******************************************
 Gaussian 16:  ES64L-G16RevA.03 25-Dec-2016
                23-Jan-2026 
 ******************************************
 %nprocshared=16
 Will use up to   16 processors via shared memory.
 %mem=16GB
 %oldchk=DDL-S1-cLR-2.chk
 %chk=DDL-S1-cLR-gs-2.chk
 Copying data from "DDL-S1-cLR-2.chk" to current chk file "DDL-S1-cLR-gs-2.chk"
 IOpt=  2 FromEx=T IUOpen= 4 IOptOp= 5 NList=   0 IFRang= 0 IUIn= 4 IUOut= 2.
 ----------------------------------------------------------------------
 #p CAM-B3LYP TZVP em=gd3bj scrf=(Solvent=TetraHydroFuran,NonEquilibriu
 m=Read) Geom=Check Guess=Read
 ----------------------------------------------------------------------
 1/29=2,38=1,172=1/1;
 2/12=2,40=1/2;
 3/5=19,7=101,11=2,14=-4,25=1,30=1,70=6002201,72=20,74=-40,116=-2,124=41/1,2,3;
 4/5=1/1;
 5/5=2,38=6,53=20/2;
 6/7=2,8=2,9=2,10=2,28=1/1;
 99/5=1,9=1/99;
 Leave Link    1 at Fri Jan 23 22:31:54 2026, MaxMem=  2147483648 cpu:               0.8 elap:               0.1
 (Enter /data/home/wyx/g16/l101.exe)
 -------------------
 Title Card Required
 -------------------
 Structure from the checkpoint file:  "DDL-S1-cLR-gs-2.chk"
 Charge =  0 Multiplicity = 1
 Z-Matrix found in chk file.
 O,0,2.839936,-1.57412,0.027537
 O,0,-3.429685,-1.651347,-0.161017
 N,0,-0.667712,1.518274,-0.169335
 H,0,-0.979804,2.479216,-0.218446
 C,0,-1.249328,-0.763224,-0.19906
 C,0,0.677005,1.338226,-0.016181
 C,0,-1.641231,0.581656,-0.233331
 C,0,-2.210752,-1.848225,-0.190288
 C,0,0.192015,-1.080167,-0.17551
 H,0,0.400774,-1.882018,0.542703
 H,0,0.477238,-1.570612,-1.125705
 C,0,1.14707,0.026047,0.046437
 C,0,2.518271,-0.402673,0.26487
 C,0,-3.030519,1.106595,-0.353814
 H,0,-3.026178,2.192805,-0.442962
 H,0,-3.534303,0.689224,-1.222287
 H,0,-3.633018,0.832991,0.509189
 C,0,-1.705963,-3.270732,-0.184436
 H,0,-2.508783,-3.926567,-0.507959
 H,0,-0.840672,-3.427047,-0.823427
 H,0,-1.42028,-3.564684,0.827007
 C,0,3.569453,0.526233,0.82321
 H,0,4.074471,1.064055,0.017929
 H,0,3.169884,1.257045,1.521521
 H,0,4.31354,-0.085163,1.3294
 C,0,1.470134,2.602425,0.024857
 H,0,1.733665,2.89598,1.042272
 H,0,2.392356,2.511685,-0.541809
 H,0,0.902417,3.424121,-0.411365
 Recover connectivity data from disk.
 ITRead=  0  0  0  0  0  0  0  0  0  0  0  0  0  0  0  0  0  0  0  0
 ITRead=  0  0  0  0  0  0  0  0  0
 MicOpt= -1 -1 -1 -1 -1 -1 -1 -1 -1 -1 -1 -1 -1 -1 -1 -1 -1 -1 -1 -1
 MicOpt= -1 -1 -1 -1 -1 -1 -1 -1 -1
 NAtoms=     29 NQM=       29 NQMF=       0 NMMI=      0 NMMIF=      0
                NMic=       0 NMicF=      0.
                    Isotopes and Nuclear Properties:
 (Nuclear quadrupole moments (NQMom) in fm**2, nuclear magnetic moments (NMagM)
  in nuclear magnetons)

  Atom         1           2           3           4           5           6           7           8           9          10
 IAtWgt=          16          16          14           1          12          12          12          12          12           1
 AtmWgt=  15.9949146  15.9949146  14.0030740   1.0078250  12.0000000  12.0000000  12.0000000  12.0000000  12.0000000   1.0078250
 NucSpn=           0           0           2           1           0           0           0           0           0           1
 AtZEff=   5.6000000   5.6000000   4.5500000   1.0000000   3.6000000   3.6000000   3.6000000   3.6000000   3.6000000   1.0000000
 NQMom=    0.0000000   0.0000000   2.0440000   0.0000000   0.0000000   0.0000000   0.0000000   0.0000000   0.0000000   0.0000000
 NMagM=    0.0000000   0.0000000   0.4037610   2.7928460   0.0000000   0.0000000   0.0000000   0.0000000   0.0000000   2.7928460
 AtZNuc=   8.0000000   8.0000000   7.0000000   1.0000000   6.0000000   6.0000000   6.0000000   6.0000000   6.0000000   1.0000000

  Atom        11          12          13          14          15          16          17          18          19          20
 IAtWgt=           1          12          12          12           1           1           1          12           1           1
 AtmWgt=   1.0078250  12.0000000  12.0000000  12.0000000   1.0078250   1.0078250   1.0078250  12.0000000   1.0078250   1.0078250
 NucSpn=           1           0           0           0           1           1           1           0           1           1
 AtZEff=   1.0000000   3.6000000   3.6000000   3.6000000   1.0000000   1.0000000   1.0000000   3.6000000   1.0000000   1.0000000
 NQMom=    0.0000000   0.0000000   0.0000000   0.0000000   0.0000000   0.0000000   0.0000000   0.0000000   0.0000000   0.0000000
 NMagM=    2.7928460   0.0000000   0.0000000   0.0000000   2.7928460   2.7928460   2.7928460   0.0000000   2.7928460   2.7928460
 AtZNuc=   1.0000000   6.0000000   6.0000000   6.0000000   1.0000000   1.0000000   1.0000000   6.0000000   1.0000000   1.0000000

  Atom        21          22          23          24          25          26          27          28          29
 IAtWgt=           1          12           1           1           1          12           1           1           1
 AtmWgt=   1.0078250  12.0000000   1.0078250   1.0078250   1.0078250  12.0000000   1.0078250   1.0078250   1.0078250
 NucSpn=           1           0           1           1           1           0           1           1           1
 AtZEff=   1.0000000   3.6000000   1.0000000   1.0000000   1.0000000   3.6000000   1.0000000   1.0000000   1.0000000
 NQMom=    0.0000000   0.0000000   0.0000000   0.0000000   0.0000000   0.0000000   0.0000000   0.0000000   0.0000000
 NMagM=    2.7928460   0.0000000   2.7928460   2.7928460   2.7928460   0.0000000   2.7928460   2.7928460   2.7928460
 AtZNuc=   1.0000000   6.0000000   1.0000000   1.0000000   1.0000000   6.0000000   1.0000000   1.0000000   1.0000000
 Leave Link  101 at Fri Jan 23 22:31:56 2026, MaxMem=  2147483648 cpu:               0.9 elap:               0.1
 (Enter /data/home/wyx/g16/l202.exe)
                          Input orientation:                          
 ---------------------------------------------------------------------
 Center     Atomic      Atomic             Coordinates (Angstroms)
 Number     Number       Type             X           Y           Z
 ---------------------------------------------------------------------
      1          8           0        2.839936   -1.574120    0.027537
      2          8           0       -3.429685   -1.651347   -0.161017
      3          7           0       -0.667712    1.518274   -0.169335
      4          1           0       -0.979804    2.479216   -0.218446
      5          6           0       -1.249328   -0.763224   -0.199060
      6          6           0        0.677005    1.338226   -0.016181
      7          6           0       -1.641231    0.581656   -0.233331
      8          6           0       -2.210752   -1.848225   -0.190288
      9          6           0        0.192015   -1.080167   -0.175510
     10          1           0        0.400774   -1.882018    0.542703
     11          1           0        0.477238   -1.570612   -1.125705
     12          6           0        1.147070    0.026047    0.046437
     13          6           0        2.518271   -0.402673    0.264870
     14          6           0       -3.030519    1.106595   -0.353814
     15          1           0       -3.026178    2.192805   -0.442962
     16          1           0       -3.534303    0.689224   -1.222287
     17          1           0       -3.633018    0.832991    0.509189
     18          6           0       -1.705963   -3.270732   -0.184436
     19          1           0       -2.508783   -3.926567   -0.507959
     20          1           0       -0.840672   -3.427047   -0.823427
     21          1           0       -1.420280   -3.564684    0.827007
     22          6           0        3.569453    0.526233    0.823210
     23          1           0        4.074471    1.064055    0.017929
     24          1           0        3.169884    1.257045    1.521521
     25          1           0        4.313540   -0.085163    1.329400
     26          6           0        1.470134    2.602425    0.024857
     27          1           0        1.733665    2.895980    1.042272
     28          1           0        2.392356    2.511685   -0.541809
     29          1           0        0.902417    3.424121   -0.411365
 ---------------------------------------------------------------------
                    Distance matrix (angstroms):
                    1          2          3          4          5
     1  O    0.000000
     2  O    6.272931   0.000000
     3  N    4.680305   4.204172   0.000000
     4  H    5.574985   4.802787   1.011545   0.000000
     5  C    4.175042   2.354605   2.354654   3.253680   0.000000
     6  C    3.627939   5.081676   1.365334   2.021827   2.856623
     7  C    4.979586   2.861835   1.352438   2.009587   1.401237
     8  C    5.062809   1.235077   3.703340   4.499197   1.449703
     9  C    2.701241   3.666493   2.736981   3.747561   1.475967
    10  H    2.511913   3.901390   3.634645   4.637424   2.127146
    11  H    2.629129   4.025070   3.430273   4.398545   2.119334
    12  C    2.329525   4.878870   2.359392   3.257575   2.534944
    13  C    1.237774   6.092516   3.745539   4.558005   3.813139
    14  C    6.464820   2.793340   2.405487   2.471405   2.587047
    15  H    6.987302   3.875541   2.468243   2.078481   3.457570
    16  H    6.878642   2.572064   3.164392   3.276772   2.894427
    17  H    6.922811   2.581173   3.118180   3.206096   2.954911
    18  C    4.856812   2.365201   4.900283   5.795720   2.548789
    19  H    5.867671   2.478922   5.757647   6.592090   3.418828
    20  H    4.207654   3.208564   4.991388   5.938796   2.766367
    21  H    4.769794   2.945294   5.234073   6.149449   2.988347
    22  C    2.361519   7.395843   4.463503   5.059143   5.091992
    23  H    2.912754   7.982342   4.767566   5.253975   5.632838
    24  H    3.218128   7.405673   4.201711   4.662735   5.154738
    25  H    2.466445   8.039391   5.443353   6.082052   5.808740
    26  C    4.395440   6.491329   2.404887   2.465071   4.332806
    27  H    4.715434   6.984717   3.022032   3.020930   4.881488
    28  H    4.149492   7.167426   3.238768   3.387784   4.909620
    29  H    5.378571   6.677586   2.481156   2.114904   4.712636
                    6          7          8          9         10
     6  C    0.000000
     7  C    2.448218   0.000000
     8  C    4.303827   2.496103   0.000000
     9  C    2.471685   2.475033   2.522582   0.000000
    10  H    3.280034   3.292674   2.712653   1.096529   0.000000
    11  H    3.119662   3.149047   2.859609   1.106688   1.698943
    12  C    1.395240   2.856850   3.852779   1.478208   2.108068
    13  C    2.549506   4.303320   4.965929   2.462600   2.597970
    14  C    3.730065   1.490033   3.070785   3.898518   4.637814
    15  H    3.824397   2.134906   4.130216   4.597895   5.414769
    16  H    4.428432   2.138534   3.042278   4.255812   5.021086
    17  H    4.371221   2.140495   3.114647   4.331266   4.862497
    18  C    5.191275   3.853242   1.509428   2.898444   2.625947
    19  H    6.173260   4.599146   2.123498   3.937871   3.708044
    20  H    5.065848   4.130231   2.184185   2.644633   2.407200
    21  H    5.398898   4.285472   2.146152   3.126877   2.495683
    22  C    3.119321   5.317008   6.330561   3.871053   3.989848
    23  H    3.408681   5.741523   6.930278   4.439434   4.738226
    24  H    2.930113   5.165509   6.443930   4.148515   4.298810
    25  H    4.130498   6.192421   6.927065   4.499084   4.376907
    26  C    1.492962   3.718973   5.779576   3.903232   4.639173
    27  H    2.159502   4.286395   6.291670   4.435022   4.985522
    28  H    2.143763   4.482186   6.349881   4.228129   4.944410
    29  H    2.134933   3.818566   6.126853   4.566061   5.414518
                   11         12         13         14         15
    11  H    0.000000
    12  C    2.090912   0.000000
    13  C    2.731958   1.453171   0.000000
    14  C    4.479689   4.333594   5.783574   0.000000
    15  H    5.186846   4.727616   6.162666   1.089871   0.000000
    16  H    4.605285   4.895377   6.327521   1.087310   1.768133
    17  H    5.034321   4.869758   6.278926   1.087492   1.767467
    18  C    2.922800   4.365988   5.125602   4.576476   5.626726
    19  H    3.853369   5.412557   6.187598   5.062479   6.141550
    20  H    2.296652   4.078191   4.649057   5.056666   6.041848
    21  H    3.374905   4.482625   5.081978   5.080163   6.110680
    22  C    4.213884   2.592586   1.509832   6.729178   6.919754
    23  H    4.603200   3.106115   2.152680   7.114836   7.204562
    24  H    4.717393   2.789804   2.181384   6.479546   6.567041
    25  H    4.790753   3.418317   2.111167   7.628152   7.886816
    26  C    4.441157   2.596644   3.191678   4.757812   4.539104
    27  H    5.121443   3.093913   3.478660   5.277159   5.035522
    28  H    4.546841   2.841684   3.026560   5.605104   5.428809
    29  H    5.063439   3.437491   4.208638   4.565329   4.117159
                   16         17         18         19         20
    16  H    0.000000
    17  H    1.740236   0.000000
    18  C    4.483438   4.586415   0.000000
    19  H    4.781996   4.995186   1.085959   0.000000
    20  H    4.935425   5.265072   1.086956   1.769643   0.000000
    21  H    5.173435   4.933230   1.091348   1.760094   1.754657
    22  C    7.394185   7.215837   6.577409   7.651431   6.147279
    23  H    7.718295   7.726585   7.228053   8.277808   6.710925
    24  H    7.266156   6.890872   6.869129   7.952099   6.597277
    25  H    8.288511   8.041364   6.976673   8.042162   6.509129
    26  C    5.500918   5.422881   6.680222   7.664425   6.512599
    27  H    6.144061   5.774200   7.166881   8.182220   7.077338
    28  H    6.237764   6.342534   7.096498   8.091563   6.767593
    29  H    5.274632   5.303918   7.188616   8.104211   7.081430
                   21         22         23         24         25
    21  H    0.000000
    22  C    6.452368   0.000000
    23  H    7.229946   1.092142   0.000000
    24  H    6.693357   1.086913   1.765308   0.000000
    25  H    6.725783   1.087979   1.760060   1.773804   0.000000
    26  C    6.857928   3.058608   3.024765   2.634236   4.124308
    27  H    7.192627   3.005629   3.143978   2.231258   3.952899
    28  H    7.302884   2.681577   2.288766   2.536928   3.733094
    29  H    7.468057   4.127349   3.976950   3.684247   5.194333
                   26         27         28         29
    26  C    0.000000
    27  H    1.091218   0.000000
    28  H    1.086203   1.758087   0.000000
    29  H    1.089852   1.755838   1.751991   0.000000
 Stoichiometry    C11H15NO2
 Framework group  C1[X(C11H15NO2)]
 Deg. of freedom    81
 Full point group                 C1      NOp   1
 RotChk:  IX=0 Diff= 6.81D-16
 Largest Abelian subgroup         C1      NOp   1
 Largest concise Abelian subgroup C1      NOp   1
                         Standard orientation:                         
 ---------------------------------------------------------------------
 Center     Atomic      Atomic             Coordinates (Angstroms)
 Number     Number       Type             X           Y           Z
 ---------------------------------------------------------------------
      1          8           0        2.283190   -2.286344   -0.279783
      2          8           0       -3.631669   -0.261053    0.232379
      3          7           0        0.018250    1.803861   -0.066421
      4          1           0        0.043916    2.815044   -0.074977
      5          6           0       -1.295972   -0.149778   -0.043856
      6          6           0        1.232450    1.179477   -0.065370
      7          6           0       -1.214474    1.248981   -0.026595
      8          6           0       -2.559720   -0.851555    0.066098
      9          6           0       -0.050701   -0.929760   -0.183154
     10          1           0       -0.050542   -1.785285    0.502742
     11          1           0       -0.046622   -1.446105   -1.161995
     12          6           0        1.238041   -0.215751   -0.063003
     13          6           0        2.400213   -1.085964   -0.001437
     14          6           0       -2.351130    2.211655    0.011735
     15          1           0       -1.991270    3.237050   -0.071230
     16          1           0       -3.052701    2.023650   -0.797397
     17          1           0       -2.917985    2.117887    0.935056
     18          6           0       -2.564558   -2.359839    0.007557
     19          1           0       -3.569929   -2.696068   -0.227996
     20          1           0       -1.873017   -2.768168   -0.724913
     21          1           0       -2.291430   -2.775195    0.979112
     22          6           0        3.754106   -0.585384    0.441268
     23          1           0        4.324449   -0.212741   -0.412324
     24          1           0        3.697738    0.206240    1.183922
     25          1           0        4.297526   -1.430911    0.857774
     26          6           0        2.404006    2.103998   -0.106028
     27          1           0        2.854434    2.249105    0.877239
     28          1           0        3.178348    1.735359   -0.772614
     29          1           0        2.103592    3.085807   -0.471513
 ---------------------------------------------------------------------
 Rotational constants (GHZ):           1.0728848           0.4896112           0.3424924
 Leave Link  202 at Fri Jan 23 22:31:56 2026, MaxMem=  2147483648 cpu:               0.0 elap:               0.0
 (Enter /data/home/wyx/g16/l301.exe)
 Standard basis: TZVP (5D, 7F)
 Ernie: Thresh=  0.10000D-02 Tol=  0.10000D-05 Strict=F.
 There are   370 symmetry adapted cartesian basis functions of A   symmetry.
 There are   356 symmetry adapted basis functions of A   symmetry.
   356 basis functions,   610 primitive gaussians,   370 cartesian basis functions
    52 alpha electrons       52 beta electrons
       nuclear repulsion energy       898.8295996437 Hartrees.
 IExCor=20419 DFT=T Ex+Corr=CAM-B3LYP ExCW=0 ScaHFX=  1.000000
 ScaDFX=  1.000000  1.000000  1.000000  0.810000 ScalE2=  1.000000  1.000000
 IRadAn=      5 IRanWt=     -1 IRanGd=            0 ICorTp=0 IEmpDi=141
 HFx  wShort=  0.000000 wLong=  0.330000 cFull=  0.190000 cShort=  0.000000 cLong=  0.460000
 DFx  wShort=  0.000000 wLong=  0.330000 cFull=  0.190000 cShort=  0.000000 cLong=  0.460000
 NAtoms=   29 NActive=   29 NUniq=   29 SFac= 1.00D+00 NAtFMM=   60 NAOKFM=F Big=F
 Integral buffers will be    131072 words long.
 Raffenetti 2 integral format.
 Two-electron integral symmetry is turned on.
 R6Disp:  Grimme-D3(BJ) Dispersion energy=       -0.0261136807 Hartrees.
 Nuclear repulsion after empirical dispersion term =      898.8034859630 Hartrees.
 ------------------------------------------------------------------------------
 Polarizable Continuum Model (PCM)
 =================================
 Model                : PCM.
 Atomic radii         : UFF (Universal Force Field).
 Polarization charges : Total charges.
 Charge compensation  : None.
 Solution method      : On-the-fly selection.
 Cavity type          : Scaled VdW (van der Waals Surface) (Alpha=1.100).
 Cavity algorithm     : GePol (No added spheres)
                        Default sphere list used, NSphG=   29.
                        Lebedev-Laikov grids with approx.  5.0 points / Ang**2.
                        Smoothing algorithm: York/Karplus (Gamma=1.0000).
                        Polarization charges: spherical gaussians, with
                                              point-specific exponents (IZeta= 3).
                        Self-potential: point-specific (ISelfS= 7).
                        Self-field    : sphere-specific E.n sum rule (ISelfD= 2).
 Solvent              : TetraHydroFuran, Eps=   7.425700 Eps(inf)=   1.974025
 ------------------------------------------------------------------------------
 GePol: Number of generator spheres                  =      29
 GePol: Total number of spheres                      =      29
 GePol: Number of exposed spheres                    =      29 (100.00%)
 GePol: Number of points                             =    2093
 GePol: Average weight of points                     =       0.13
 GePol: Minimum weight of points                     =   0.22D-10
 GePol: Maximum weight of points                     =    0.20577
 GePol: Number of points with low weight             =     115
 GePol: Fraction of low-weight points (<1% of avg)   =       5.49%
 GePol: Cavity surface area                          =    269.445 Ang**2
 GePol: Cavity volume                                =    287.443 Ang**3
 Leave Link  301 at Fri Jan 23 22:31:56 2026, MaxMem=  2147483648 cpu:               0.6 elap:               0.0
 (Enter /data/home/wyx/g16/l302.exe)
 NPDir=0 NMtPBC=     1 NCelOv=     1 NCel=       1 NClECP=     1 NCelD=      1
         NCelK=      1 NCelE2=     1 NClLst=     1 CellRange=     0.0.
 One-electron integrals computed using PRISM.
 One-electron integral symmetry used in STVInt
 NBasis=   356 RedAO= T EigKep=  3.98D-05  NBF=   356
 NBsUse=   356 1.00D-06 EigRej= -1.00D+00 NBFU=   356
 Precomputing XC quadrature grid using
 IXCGrd= 4 IRadAn=           5 IRanWt=          -1 IRanGd=           0 AccXCQ= 0.00D+00.
 Generated NRdTot=       0 NPtTot=           0 NUsed=           0 NTot=          32
 NSgBfM=   366   366   366   366   366 MxSgAt=    29 MxSgA2=    29.
 Leave Link  302 at Fri Jan 23 22:31:57 2026, MaxMem=  2147483648 cpu:               3.1 elap:               0.2
 (Enter /data/home/wyx/g16/l303.exe)
 DipDrv:  MaxL=1.
 Leave Link  303 at Fri Jan 23 22:31:57 2026, MaxMem=  2147483648 cpu:               0.6 elap:               0.0
 (Enter /data/home/wyx/g16/l401.exe)
 Initial guess from the checkpoint file:  "DDL-S1-cLR-gs-2.chk"
 B after Tr=    -0.000000    0.000000    0.000000
         Rot=    1.000000    0.000000    0.000000    0.000000 Ang=   0.00 deg.
 Guess basis will be translated and rotated to current coordinates.
 JPrj=2 DoOrth=T DoCkMO=T.
 Leave Link  401 at Fri Jan 23 22:31:57 2026, MaxMem=  2147483648 cpu:               2.2 elap:               0.2
 (Enter /data/home/wyx/g16/l502.exe)
 Integral symmetry usage will be decided dynamically.
 Closed shell SCF:
 Using DIIS extrapolation, IDIIS=  1040.
 NGot=  2147483648 LenX=  2147200095 LenY=  2147062754
 Requested convergence on RMS density matrix=1.00D-08 within 128 cycles.
 Requested convergence on MAX density matrix=1.00D-06.
 Requested convergence on             energy=1.00D-06.
 No special actions if energy rises.
 Fock matrices will be formed incrementally for  20 cycles.

 Cycle   1  Pass 1  IDiag  1:
 FoFJK:  IHMeth= 1 ICntrl=       0 DoSepK=T KAlg= 0 I1Cent=           0 FoldK=F
 IRaf=         1 NMat=       1 IRICut=       1 DoRegI=T DoRafI=F ISym2E= 0 IDoP0=0 IntGTp=1.
 FoFCou: FMM=F IPFlag=           0 FMFlag=      100000 FMFlg1=           0
         NFxFlg=           0 DoJE=T BraDBF=F KetDBF=F FulRan=T
         wScrn=  0.000000 ICntrl=       500 IOpCl=  0 I1Cent=           0 NGrid=           0
         NMat0=    1 NMatS0=      1 NMatT0=    0 NMatD0=    1 NMtDS0=    0 NMtDT0=    0
 Symmetry not used in FoFCou.
 Inv3:  Mode=1 IEnd=    13141947.
 Iteration    1 A*A^-1 deviation from unit magnitude is 3.11D-15 for    237.
 Iteration    1 A*A^-1 deviation from orthogonality  is 2.39D-15 for   2001   1586.
 Iteration    1 A^-1*A deviation from unit magnitude is 3.11D-15 for    126.
 Iteration    1 A^-1*A deviation from orthogonality  is 4.54D-15 for   1391   1338.
 NEqPCM:  Using non-equilibrium solvation (IEInf=1, Eps=   7.4257, EpsInf=   1.9740)
 Inv3:  Mode=1 IEnd=    13141947.
 Iteration    1 A*A^-1 deviation from unit magnitude is 3.33D-15 for    731.
 Iteration    1 A*A^-1 deviation from orthogonality  is 1.47D-15 for   1358      3.
 Iteration    1 A^-1*A deviation from unit magnitude is 3.00D-15 for    488.
 Iteration    1 A^-1*A deviation from orthogonality  is 5.27D-15 for   1370   1338.
 E= -633.319324345356    
 DIIS: error= 1.81D-04 at cycle   1 NSaved=   1.
 NSaved= 1 IEnMin= 1 EnMin= -633.319324345356     IErMin= 1 ErrMin= 1.81D-04
 ErrMax= 1.81D-04  0.00D+00 EMaxC= 1.00D-01 BMatC= 9.41D-06 BMatP= 9.41D-06
 IDIUse=3 WtCom= 9.98D-01 WtEn= 1.81D-03
 Coeff-Com:  0.100D+01
 Coeff-En:   0.100D+01
 Coeff:      0.100D+01
 Gap=     0.216 Goal=   None    Shift=    0.000
 RMSDP=1.42D-04 MaxDP=7.80D-03              OVMax= 2.68D-03

 Cycle   2  Pass 1  IDiag  1:
 RMSU=  1.41D-04    CP:  9.99D-01
 E= -633.319342635338     Delta-E=       -0.000018289982 Rises=F Damp=F
 DIIS: error= 9.69D-05 at cycle   2 NSaved=   2.
 NSaved= 2 IEnMin= 2 EnMin= -633.319342635338     IErMin= 2 ErrMin= 9.69D-05
 ErrMax= 9.69D-05  0.00D+00 EMaxC= 1.00D-01 BMatC= 4.91D-06 BMatP= 9.41D-06
 IDIUse=1 WtCom= 1.00D+00 WtEn= 0.00D+00
 Coeff-Com:  0.389D+00 0.611D+00
 Coeff:      0.389D+00 0.611D+00
 Gap=     0.216 Goal=   None    Shift=    0.000
 RMSDP=2.52D-05 MaxDP=2.17D-03 DE=-1.83D-05 OVMax= 7.16D-04

 Cycle   3  Pass 1  IDiag  1:
 RMSU=  1.91D-05    CP:  1.00D+00  9.04D-01
 E= -633.319346505726     Delta-E=       -0.000003870388 Rises=F Damp=F
 DIIS: error= 7.18D-05 at cycle   3 NSaved=   3.
 NSaved= 3 IEnMin= 3 EnMin= -633.319346505726     IErMin= 3 ErrMin= 7.18D-05
 ErrMax= 7.18D-05  0.00D+00 EMaxC= 1.00D-01 BMatC= 1.42D-06 BMatP= 4.91D-06
 IDIUse=1 WtCom= 1.00D+00 WtEn= 0.00D+00
 Coeff-Com:  0.727D-01 0.334D+00 0.593D+00
 Coeff:      0.727D-01 0.334D+00 0.593D+00
 Gap=     0.216 Goal=   None    Shift=    0.000
 RMSDP=9.72D-06 MaxDP=5.96D-04 DE=-3.87D-06 OVMax= 4.07D-04

 Cycle   4  Pass 1  IDiag  1:
 RMSU=  8.90D-06    CP:  9.99D-01  9.06D-01  8.88D-01
 E= -633.319347595277     Delta-E=       -0.000001089551 Rises=F Damp=F
 DIIS: error= 1.61D-05 at cycle   4 NSaved=   4.
 NSaved= 4 IEnMin= 4 EnMin= -633.319347595277     IErMin= 4 ErrMin= 1.61D-05
 ErrMax= 1.61D-05  0.00D+00 EMaxC= 1.00D-01 BMatC= 1.08D-07 BMatP= 1.42D-06
 IDIUse=1 WtCom= 1.00D+00 WtEn= 0.00D+00
 Coeff-Com: -0.113D-01 0.646D-01 0.237D+00 0.709D+00
 Coeff:     -0.113D-01 0.646D-01 0.237D+00 0.709D+00
 Gap=     0.216 Goal=   None    Shift=    0.000
 RMSDP=4.40D-06 MaxDP=3.00D-04 DE=-1.09D-06 OVMax= 1.81D-04

 Cycle   5  Pass 1  IDiag  1:
 RMSU=  2.67D-06    CP:  9.99D-01  9.09D-01  1.05D+00  1.04D+00
 E= -633.319347694100     Delta-E=       -0.000000098823 Rises=F Damp=F
 DIIS: error= 4.94D-06 at cycle   5 NSaved=   5.
 NSaved= 5 IEnMin= 5 EnMin= -633.319347694100     IErMin= 5 ErrMin= 4.94D-06
 ErrMax= 4.94D-06  0.00D+00 EMaxC= 1.00D-01 BMatC= 1.91D-08 BMatP= 1.08D-07
 IDIUse=1 WtCom= 1.00D+00 WtEn= 0.00D+00
 Coeff-Com: -0.125D-01-0.170D-01 0.225D-01 0.318D+00 0.689D+00
 Coeff:     -0.125D-01-0.170D-01 0.225D-01 0.318D+00 0.689D+00
 Gap=     0.216 Goal=   None    Shift=    0.000
 RMSDP=1.30D-06 MaxDP=9.03D-05 DE=-9.88D-08 OVMax= 7.71D-05

 Cycle   6  Pass 1  IDiag  1:
 RMSU=  9.85D-07    CP:  9.99D-01  9.07D-01  1.07D+00  1.13D+00  1.07D+00
 E= -633.319347717410     Delta-E=       -0.000000023310 Rises=F Damp=F
 DIIS: error= 3.50D-06 at cycle   6 NSaved=   6.
 NSaved= 6 IEnMin= 6 EnMin= -633.319347717410     IErMin= 6 ErrMin= 3.50D-06
 ErrMax= 3.50D-06  0.00D+00 EMaxC= 1.00D-01 BMatC= 1.11D-09 BMatP= 1.91D-08
 IDIUse=1 WtCom= 1.00D+00 WtEn= 0.00D+00
 Coeff-Com: -0.116D-02-0.106D-01-0.152D-01-0.783D-02 0.142D+00 0.893D+00
 Coeff:     -0.116D-02-0.106D-01-0.152D-01-0.783D-02 0.142D+00 0.893D+00
 Gap=     0.216 Goal=   None    Shift=    0.000
 RMSDP=7.98D-07 MaxDP=5.53D-05 DE=-2.33D-08 OVMax= 5.69D-05

 Cycle   7  Pass 1  IDiag  1:
 RMSU=  3.14D-07    CP:  9.99D-01  9.05D-01  1.08D+00  1.16D+00  1.20D+00
                    CP:  1.35D+00
 E= -633.319347720684     Delta-E=       -0.000000003274 Rises=F Damp=F
 DIIS: error= 2.12D-06 at cycle   7 NSaved=   7.
 NSaved= 7 IEnMin= 7 EnMin= -633.319347720684     IErMin= 7 ErrMin= 2.12D-06
 ErrMax= 2.12D-06  0.00D+00 EMaxC= 1.00D-01 BMatC= 4.55D-10 BMatP= 1.11D-09
 IDIUse=1 WtCom= 1.00D+00 WtEn= 0.00D+00
 Coeff-Com:  0.116D-02-0.302D-02-0.780D-02-0.441D-01-0.376D-01 0.418D+00
 Coeff-Com:  0.673D+00
 Coeff:      0.116D-02-0.302D-02-0.780D-02-0.441D-01-0.376D-01 0.418D+00
 Coeff:      0.673D+00
 Gap=     0.216 Goal=   None    Shift=    0.000
 RMSDP=2.33D-07 MaxDP=1.09D-05 DE=-3.27D-09 OVMax= 2.47D-05

 Cycle   8  Pass 1  IDiag  1:
 RMSU=  1.26D-07    CP:  9.99D-01  9.05D-01  1.08D+00  1.16D+00  1.24D+00
                    CP:  1.48D+00  1.11D+00
 E= -633.319347721530     Delta-E=       -0.000000000846 Rises=F Damp=F
 DIIS: error= 8.94D-07 at cycle   8 NSaved=   8.
 NSaved= 8 IEnMin= 8 EnMin= -633.319347721530     IErMin= 8 ErrMin= 8.94D-07
 ErrMax= 8.94D-07  0.00D+00 EMaxC= 1.00D-01 BMatC= 8.70D-11 BMatP= 4.55D-10
 IDIUse=1 WtCom= 1.00D+00 WtEn= 0.00D+00
 Coeff-Com:  0.802D-03 0.651D-03 0.826D-03-0.161D-01-0.588D-01-0.489D-01
 Coeff-Com:  0.287D+00 0.834D+00
 Coeff:      0.802D-03 0.651D-03 0.826D-03-0.161D-01-0.588D-01-0.489D-01
 Coeff:      0.287D+00 0.834D+00
 Gap=     0.216 Goal=   None    Shift=    0.000
 RMSDP=1.95D-07 MaxDP=1.05D-05 DE=-8.46D-10 OVMax= 1.73D-05

 Cycle   9  Pass 1  IDiag  1:
 RMSU=  7.09D-08    CP:  9.99D-01  9.04D-01  1.08D+00  1.17D+00  1.26D+00
                    CP:  1.61D+00  1.40D+00  1.22D+00
 E= -633.319347721770     Delta-E=       -0.000000000240 Rises=F Damp=F
 DIIS: error= 3.90D-07 at cycle   9 NSaved=   9.
 NSaved= 9 IEnMin= 9 EnMin= -633.319347721770     IErMin= 9 ErrMin= 3.90D-07
 ErrMax= 3.90D-07  0.00D+00 EMaxC= 1.00D-01 BMatC= 1.38D-11 BMatP= 8.70D-11
 IDIUse=1 WtCom= 1.00D+00 WtEn= 0.00D+00
 Coeff-Com:  0.141D-03 0.729D-03 0.186D-02 0.233D-02-0.185D-01-0.982D-01
 Coeff-Com: -0.530D-03 0.345D+00 0.767D+00
 Coeff:      0.141D-03 0.729D-03 0.186D-02 0.233D-02-0.185D-01-0.982D-01
 Coeff:     -0.530D-03 0.345D+00 0.767D+00
 Gap=     0.216 Goal=   None    Shift=    0.000
 RMSDP=6.31D-08 MaxDP=2.50D-06 DE=-2.40D-10 OVMax= 6.65D-06

 Cycle  10  Pass 1  IDiag  1:
 RMSU=  2.65D-08    CP:  9.99D-01  9.04D-01  1.08D+00  1.17D+00  1.26D+00
                    CP:  1.66D+00  1.49D+00  1.37D+00  1.19D+00
 E= -633.319347721807     Delta-E=       -0.000000000037 Rises=F Damp=F
 DIIS: error= 1.36D-07 at cycle  10 NSaved=  10.
 NSaved=10 IEnMin=10 EnMin= -633.319347721807     IErMin=10 ErrMin= 1.36D-07
 ErrMax= 1.36D-07  0.00D+00 EMaxC= 1.00D-01 BMatC= 2.06D-12 BMatP= 1.38D-11
 IDIUse=1 WtCom= 1.00D+00 WtEn= 0.00D+00
 Coeff-Com: -0.734D-04 0.225D-03 0.430D-03 0.364D-02 0.216D-02-0.303D-01
 Coeff-Com: -0.426D-01-0.828D-02 0.270D+00 0.805D+00
 Coeff:     -0.734D-04 0.225D-03 0.430D-03 0.364D-02 0.216D-02-0.303D-01
 Coeff:     -0.426D-01-0.828D-02 0.270D+00 0.805D+00
 Gap=     0.216 Goal=   None    Shift=    0.000
 RMSDP=3.01D-08 MaxDP=1.64D-06 DE=-3.69D-11 OVMax= 2.56D-06

 Cycle  11  Pass 1  IDiag  1:
 RMSU=  8.95D-09    CP:  9.99D-01  9.04D-01  1.08D+00  1.17D+00  1.26D+00
                    CP:  1.67D+00  1.53D+00  1.42D+00  1.40D+00  1.17D+00
 E= -633.319347721821     Delta-E=       -0.000000000014 Rises=F Damp=F
 DIIS: error= 4.45D-08 at cycle  11 NSaved=  11.
 NSaved=11 IEnMin=11 EnMin= -633.319347721821     IErMin=11 ErrMin= 4.45D-08
 ErrMax= 4.45D-08  0.00D+00 EMaxC= 1.00D-01 BMatC= 6.64D-13 BMatP= 2.06D-12
 IDIUse=1 WtCom= 1.00D+00 WtEn= 0.00D+00
 Coeff-Com: -0.569D-04 0.362D-04-0.127D-03 0.151D-02 0.407D-02 0.127D-02
 Coeff-Com: -0.188D-01-0.583D-01 0.741D-02 0.421D+00 0.642D+00
 Coeff:     -0.569D-04 0.362D-04-0.127D-03 0.151D-02 0.407D-02 0.127D-02
 Coeff:     -0.188D-01-0.583D-01 0.741D-02 0.421D+00 0.642D+00
 Gap=     0.216 Goal=   None    Shift=    0.000
 RMSDP=9.69D-09 MaxDP=5.62D-07 DE=-1.38D-11 OVMax= 6.97D-07

 Error on total polarization charges =  0.00945
 SCF Done:  E(RCAM-B3LYP) =  -633.319347722     A.U. after   11 cycles
            NFock= 11  Conv=0.97D-08     -V/T= 2.0043
 KE= 6.306136746351D+02 PE=-3.273481323495D+03 EE= 1.110744815175D+03
 Leave Link  502 at Fri Jan 23 22:32:41 2026, MaxMem=  2147483648 cpu:             690.4 elap:              43.8
 (Enter /data/home/wyx/g16/l601.exe)
 Copying SCF densities to generalized density rwf, IOpCl= 0 IROHF=0.

 **********************************************************************

            Population analysis using the SCF density.

 **********************************************************************

 Orbital symmetries:
       Occupied  (A) (A) (A) (A) (A) (A) (A) (A) (A) (A) (A) (A)
                 (A) (A) (A) (A) (A) (A) (A) (A) (A) (A) (A) (A)
                 (A) (A) (A) (A) (A) (A) (A) (A) (A) (A) (A) (A)
                 (A) (A) (A) (A) (A) (A) (A) (A) (A) (A) (A) (A)
                 (A) (A) (A) (A)
       Virtual   (A) (A) (A) (A) (A) (A) (A) (A) (A) (A) (A) (A)
                 (A) (A) (A) (A) (A) (A) (A) (A) (A) (A) (A) (A)
                 (A) (A) (A) (A) (A) (A) (A) (A) (A) (A) (A) (A)
                 (A) (A) (A) (A) (A) (A) (A) (A) (A) (A) (A) (A)
                 (A) (A) (A) (A) (A) (A) (A) (A) (A) (A) (A) (A)
                 (A) (A) (A) (A) (A) (A) (A) (A) (A) (A) (A) (A)
                 (A) (A) (A) (A) (A) (A) (A) (A) (A) (A) (A) (A)
                 (A) (A) (A) (A) (A) (A) (A) (A) (A) (A) (A) (A)
                 (A) (A) (A) (A) (A) (A) (A) (A) (A) (A) (A) (A)
                 (A) (A) (A) (A) (A) (A) (A) (A) (A) (A) (A) (A)
                 (A) (A) (A) (A) (A) (A) (A) (A) (A) (A) (A) (A)
                 (A) (A) (A) (A) (A) (A) (A) (A) (A) (A) (A) (A)
                 (A) (A) (A) (A) (A) (A) (A) (A) (A) (A) (A) (A)
                 (A) (A) (A) (A) (A) (A) (A) (A) (A) (A) (A) (A)
                 (A) (A) (A) (A) (A) (A) (A) (A) (A) (A) (A) (A)
                 (A) (A) (A) (A) (A) (A) (A) (A) (A) (A) (A) (A)
                 (A) (A) (A) (A) (A) (A) (A) (A) (A) (A) (A) (A)
                 (A) (A) (A) (A) (A) (A) (A) (A) (A) (A) (A) (A)
                 (A) (A) (A) (A) (A) (A) (A) (A) (A) (A) (A) (A)
                 (A) (A) (A) (A) (A) (A) (A) (A) (A) (A) (A) (A)
                 (A) (A) (A) (A) (A) (A) (A) (A) (A) (A) (A) (A)
                 (A) (A) (A) (A) (A) (A) (A) (A) (A) (A) (A) (A)
                 (A) (A) (A) (A) (A) (A) (A) (A) (A) (A) (A) (A)
                 (A) (A) (A) (A) (A) (A) (A) (A) (A) (A) (A) (A)
                 (A) (A) (A) (A) (A) (A) (A) (A) (A) (A) (A) (A)
                 (A) (A) (A) (A)
 The electronic state is 1-A.
 Alpha  occ. eigenvalues --  -19.17788 -19.16792 -14.44737 -10.33349 -10.32860
 Alpha  occ. eigenvalues --  -10.32673 -10.32158 -10.26317 -10.25366 -10.25050
 Alpha  occ. eigenvalues --  -10.24590 -10.24319 -10.24234 -10.23529  -1.11339
 Alpha  occ. eigenvalues --   -1.10660  -1.08423  -0.91380  -0.90391  -0.83917
 Alpha  occ. eigenvalues --   -0.82635  -0.81680  -0.78448  -0.73705  -0.72160
 Alpha  occ. eigenvalues --   -0.68628  -0.61486  -0.58234  -0.57004  -0.55069
 Alpha  occ. eigenvalues --   -0.54542  -0.53954  -0.52439  -0.51744  -0.50837
 Alpha  occ. eigenvalues --   -0.49710  -0.49457  -0.49211  -0.48681  -0.47916
 Alpha  occ. eigenvalues --   -0.47226  -0.45286  -0.45014  -0.43932  -0.43253
 Alpha  occ. eigenvalues --   -0.42078  -0.41991  -0.41419  -0.32519  -0.32123
 Alpha  occ. eigenvalues --   -0.31029  -0.24920
 Alpha virt. eigenvalues --   -0.03280   0.02604   0.06272   0.08177   0.08373
 Alpha virt. eigenvalues --    0.09713   0.10791   0.11562   0.12518   0.13413
 Alpha virt. eigenvalues --    0.13911   0.14803   0.15611   0.16436   0.16950
 Alpha virt. eigenvalues --    0.17528   0.17805   0.18013   0.18539   0.19288
 Alpha virt. eigenvalues --    0.19842   0.22039   0.22781   0.23537   0.23815
 Alpha virt. eigenvalues --    0.23958   0.24753   0.25659   0.26358   0.26751
 Alpha virt. eigenvalues --    0.27451   0.28106   0.28449   0.29592   0.30233
 Alpha virt. eigenvalues --    0.31633   0.31964   0.32356   0.33471   0.34211
 Alpha virt. eigenvalues --    0.34757   0.35821   0.36774   0.37704   0.38629
 Alpha virt. eigenvalues --    0.39710   0.41065   0.41449   0.41911   0.42484
 Alpha virt. eigenvalues --    0.44013   0.44904   0.45560   0.46211   0.46512
 Alpha virt. eigenvalues --    0.47292   0.47774   0.47981   0.48477   0.49124
 Alpha virt. eigenvalues --    0.49649   0.50635   0.51266   0.51412   0.51607
 Alpha virt. eigenvalues --    0.52520   0.52724   0.53288   0.53745   0.54239
 Alpha virt. eigenvalues --    0.54408   0.55257   0.55891   0.56676   0.58219
 Alpha virt. eigenvalues --    0.58440   0.60002   0.61145   0.61855   0.63174
 Alpha virt. eigenvalues --    0.64232   0.65103   0.66449   0.66966   0.67622
 Alpha virt. eigenvalues --    0.68798   0.69348   0.70640   0.71142   0.72151
 Alpha virt. eigenvalues --    0.73049   0.74800   0.75238   0.76098   0.77661
 Alpha virt. eigenvalues --    0.79158   0.80652   0.83489   0.86771   0.87594
 Alpha virt. eigenvalues --    0.91619   0.95884   1.02476   1.04372   1.22009
 Alpha virt. eigenvalues --    1.24285   1.27308   1.28418   1.28977   1.30327
 Alpha virt. eigenvalues --    1.31980   1.33185   1.34574   1.35169   1.36305
 Alpha virt. eigenvalues --    1.36835   1.37886   1.38482   1.38815   1.39537
 Alpha virt. eigenvalues --    1.39953   1.40231   1.40781   1.41347   1.42118
 Alpha virt. eigenvalues --    1.43387   1.43494   1.44303   1.45589   1.47319
 Alpha virt. eigenvalues --    1.48191   1.49530   1.49837   1.50300   1.50724
 Alpha virt. eigenvalues --    1.51395   1.52233   1.52997   1.55647   1.58828
 Alpha virt. eigenvalues --    1.59676   1.60077   1.61000   1.61712   1.62366
 Alpha virt. eigenvalues --    1.62601   1.63037   1.63496   1.64511   1.65804
 Alpha virt. eigenvalues --    1.66350   1.67063   1.67523   1.67993   1.68751
 Alpha virt. eigenvalues --    1.69060   1.69803   1.70266   1.71017   1.72520
 Alpha virt. eigenvalues --    1.74281   1.74792   1.75653   1.76608   1.78612
 Alpha virt. eigenvalues --    1.81610   1.82966   1.83799   1.85615   1.86561
 Alpha virt. eigenvalues --    1.86565   1.88070   1.88685   1.89087   1.90229
 Alpha virt. eigenvalues --    1.91309   1.94445   1.95124   1.99094   1.99750
 Alpha virt. eigenvalues --    2.01638   2.03894   2.05780   2.06885   2.09535
 Alpha virt. eigenvalues --    2.10223   2.11625   2.15832   2.17531   2.19679
 Alpha virt. eigenvalues --    2.20521   2.21179   2.22187   2.22948   2.26477
 Alpha virt. eigenvalues --    2.27050   2.27405   2.29234   2.31182   2.32269
 Alpha virt. eigenvalues --    2.33685   2.34437   2.36915   2.37837   2.39308
 Alpha virt. eigenvalues --    2.39417   2.40325   2.41446   2.42788   2.45148
 Alpha virt. eigenvalues --    2.45751   2.47608   2.48896   2.49633   2.51274
 Alpha virt. eigenvalues --    2.52466   2.54143   2.54578   2.56430   2.57394
 Alpha virt. eigenvalues --    2.58681   2.60960   2.61912   2.62458   2.63421
 Alpha virt. eigenvalues --    2.64781   2.65474   2.66627   2.67389   2.68426
 Alpha virt. eigenvalues --    2.71612   2.71993   2.73976   2.74693   2.75433
 Alpha virt. eigenvalues --    2.76650   2.77166   2.77606   2.78254   2.78881
 Alpha virt. eigenvalues --    2.80759   2.81666   2.83187   2.83812   2.85159
 Alpha virt. eigenvalues --    2.85546   2.86351   2.88893   2.89077   2.92108
 Alpha virt. eigenvalues --    2.97304   2.98724   3.01076   3.07083   3.10788
 Alpha virt. eigenvalues --    3.12178   3.14166   3.18022   3.19303   3.21446
 Alpha virt. eigenvalues --    3.22345   3.23403   3.25153   3.25949   3.26554
 Alpha virt. eigenvalues --    3.29129   3.30362   3.32373   3.34717   3.36507
 Alpha virt. eigenvalues --    3.38244   3.38707   3.39359   3.39589   3.41678
 Alpha virt. eigenvalues --    3.42046   3.43862   3.44875   3.47738   3.48432
 Alpha virt. eigenvalues --    3.49830   3.50171   3.56052   3.58448   3.60000
 Alpha virt. eigenvalues --    3.61426   3.91141   4.00883   4.33098   4.36232
 Alpha virt. eigenvalues --   21.68257  21.80912  22.07976  22.10224  22.11580
 Alpha virt. eigenvalues --   22.14733  22.15058  22.17786  22.19129  22.25150
 Alpha virt. eigenvalues --   22.27381  31.91426  43.64077  43.66952
          Condensed to atoms (all electrons):
               1          2          3          4          5          6
     1  O    7.931718   0.000000  -0.000172   0.000019   0.018823   0.008424
     2  O    0.000000   7.983895   0.000368   0.000011  -0.193203   0.001384
     3  N   -0.000172   0.000368   6.356992   0.368354  -0.119327   0.329996
     4  H    0.000019   0.000011   0.368354   0.412361   0.016044  -0.045653
     5  C    0.018823  -0.193203  -0.119327   0.016044   7.160105  -0.083405
     6  C    0.008424   0.001384   0.329996  -0.045653  -0.083405   5.552904
     7  C   -0.000033  -0.050300   0.394248  -0.036009   0.480089  -0.129655
     8  C   -0.000771   0.699650   0.004144  -0.000917  -0.361764   0.034779
     9  C   -0.002896   0.027673   0.015651   0.000264  -0.720735  -0.039067
    10  H    0.008086   0.000006  -0.001204   0.000023  -0.110504   0.029238
    11  H    0.008364   0.000111   0.003288   0.000038  -0.069067  -0.018947
    12  C   -0.232515  -0.003286  -0.086899   0.014528   0.201451  -0.054632
    13  C    0.717614  -0.000014   0.001637   0.000570   0.083043   0.116301
    14  C   -0.000007  -0.006093  -0.032693  -0.010681  -0.087027   0.010756
    15  H   -0.000000   0.004147   0.004788   0.002270   0.021574   0.006350
    16  H    0.000000   0.002384  -0.000549   0.000806  -0.005091  -0.001345
    17  H   -0.000000   0.003740  -0.001927   0.000914  -0.009508  -0.001247
    18  C    0.000286  -0.099354  -0.000502   0.000021  -0.248058  -0.000035
    19  H    0.000000   0.007226   0.000007  -0.000001   0.023954   0.000014
    20  H    0.000182   0.004300   0.000109   0.000001   0.046141  -0.001252
    21  H   -0.000007   0.000705   0.000011  -0.000001   0.001603   0.000183
    22  C   -0.106154   0.000000  -0.000248   0.000118   0.003650  -0.023924
    23  H    0.001442   0.000000   0.000024  -0.000011  -0.000012   0.007811
    24  H    0.005122  -0.000000   0.000210  -0.000057  -0.000716  -0.024270
    25  H    0.006627   0.000000   0.000021  -0.000003  -0.000130  -0.000881
    26  C    0.000702   0.000011  -0.025326  -0.006871   0.000779   0.195119
    27  H   -0.000054  -0.000000  -0.002358   0.000504   0.000372  -0.032851
    28  H   -0.000218  -0.000000   0.000831   0.000716   0.000088  -0.049606
    29  H    0.000022   0.000000   0.002214   0.002136  -0.000301  -0.047705
               7          8          9         10         11         12
     1  O   -0.000033  -0.000771  -0.002896   0.008086   0.008364  -0.232515
     2  O   -0.050300   0.699650   0.027673   0.000006   0.000111  -0.003286
     3  N    0.394248   0.004144   0.015651  -0.001204   0.003288  -0.086899
     4  H   -0.036009  -0.000917   0.000264   0.000023   0.000038   0.014528
     5  C    0.480089  -0.361764  -0.720735  -0.110504  -0.069067   0.201451
     6  C   -0.129655   0.034779  -0.039067   0.029238  -0.018947  -0.054632
     7  C    5.414728  -0.245879  -0.226064   0.015281  -0.005959   0.026944
     8  C   -0.245879   5.430633   0.223471  -0.009753  -0.000623  -0.054827
     9  C   -0.226064   0.223471   6.415141   0.527914   0.435336  -0.146713
    10  H    0.015281  -0.009753   0.527914   0.539326  -0.050547  -0.107296
    11  H   -0.005959  -0.000623   0.435336  -0.050547   0.573679  -0.014518
    12  C    0.026944  -0.054827  -0.146713  -0.107296  -0.014518   7.385094
    13  C    0.021144  -0.010165  -0.234582  -0.000479  -0.008787  -0.526637
    14  C    0.293331  -0.031551   0.004321   0.000407  -0.000677   0.000785
    15  H   -0.086313   0.005373   0.000901  -0.000003   0.000038  -0.001680
    16  H   -0.023927  -0.006579  -0.000289  -0.000055   0.000172   0.000239
    17  H   -0.019531  -0.001646   0.000980   0.000064  -0.000061   0.000255
    18  C   -0.002242   0.327603   0.001049   0.007325  -0.014332  -0.000112
    19  H    0.000195  -0.053455  -0.002268   0.000588   0.000142  -0.000142
    20  H    0.004394  -0.073026  -0.008078  -0.007730   0.003097   0.006920
    21  H   -0.000409  -0.023689  -0.009390  -0.000534   0.000687  -0.002339
    22  C    0.000168  -0.000068   0.009951  -0.001533   0.003642  -0.253433
    23  H   -0.000011   0.000001  -0.002051  -0.000135   0.000178  -0.010542
    24  H   -0.000032   0.000011   0.002475   0.000117  -0.000235   0.065988
    25  H    0.000011   0.000002   0.000331  -0.000017  -0.000112   0.019307
    26  C    0.002735   0.000873   0.021514   0.000170  -0.000731  -0.084648
    27  H   -0.000816  -0.000015  -0.000519   0.000037  -0.000006  -0.017092
    28  H   -0.000754   0.000001   0.000015   0.000013  -0.000096  -0.006918
    29  H    0.002948  -0.000002  -0.000482  -0.000015   0.000079   0.022307
              13         14         15         16         17         18
     1  O    0.717614  -0.000007  -0.000000   0.000000  -0.000000   0.000286
     2  O   -0.000014  -0.006093   0.004147   0.002384   0.003740  -0.099354
     3  N    0.001637  -0.032693   0.004788  -0.000549  -0.001927  -0.000502
     4  H    0.000570  -0.010681   0.002270   0.000806   0.000914   0.000021
     5  C    0.083043  -0.087027   0.021574  -0.005091  -0.009508  -0.248058
     6  C    0.116301   0.010756   0.006350  -0.001345  -0.001247  -0.000035
     7  C    0.021144   0.293331  -0.086313  -0.023927  -0.019531  -0.002242
     8  C   -0.010165  -0.031551   0.005373  -0.006579  -0.001646   0.327603
     9  C   -0.234582   0.004321   0.000901  -0.000289   0.000980   0.001049
    10  H   -0.000479   0.000407  -0.000003  -0.000055   0.000064   0.007325
    11  H   -0.008787  -0.000677   0.000038   0.000172  -0.000061  -0.014332
    12  C   -0.526637   0.000785  -0.001680   0.000239   0.000255  -0.000112
    13  C    5.617466   0.000144  -0.000043  -0.000005  -0.000006   0.001485
    14  C    0.000144   5.027320   0.390536   0.414103   0.408139   0.000945
    15  H   -0.000043   0.390536   0.580611  -0.027348  -0.025746   0.000225
    16  H   -0.000005   0.414103  -0.027348   0.509804  -0.026063  -0.000169
    17  H   -0.000006   0.408139  -0.025746  -0.026063   0.506009   0.000131
    18  C    0.001485   0.000945   0.000225  -0.000169   0.000131   5.302500
    19  H   -0.000012   0.000032  -0.000004   0.000039  -0.000038   0.396881
    20  H    0.000973   0.000104  -0.000014  -0.000028  -0.000001   0.380733
    21  H   -0.000153  -0.000187  -0.000005   0.000010  -0.000009   0.400263
    22  C    0.273612  -0.000008   0.000002  -0.000000  -0.000000   0.000030
    23  H   -0.022289  -0.000001   0.000000  -0.000000   0.000000  -0.000002
    24  H   -0.100399   0.000003   0.000000  -0.000000   0.000000   0.000001
    25  H   -0.033729   0.000000   0.000000   0.000000  -0.000000  -0.000001
    26  C   -0.054194   0.000452   0.000306   0.000006  -0.000062   0.000005
    27  H    0.006710  -0.000092  -0.000006   0.000004  -0.000005  -0.000000
    28  H   -0.001711   0.000047  -0.000007  -0.000002   0.000001   0.000000
    29  H   -0.001415  -0.000115   0.000103  -0.000001  -0.000001  -0.000000
              19         20         21         22         23         24
     1  O    0.000000   0.000182  -0.000007  -0.106154   0.001442   0.005122
     2  O    0.007226   0.004300   0.000705   0.000000   0.000000  -0.000000
     3  N    0.000007   0.000109   0.000011  -0.000248   0.000024   0.000210
     4  H   -0.000001   0.000001  -0.000001   0.000118  -0.000011  -0.000057
     5  C    0.023954   0.046141   0.001603   0.003650  -0.000012  -0.000716
     6  C    0.000014  -0.001252   0.000183  -0.023924   0.007811  -0.024270
     7  C    0.000195   0.004394  -0.000409   0.000168  -0.000011  -0.000032
     8  C   -0.053455  -0.073026  -0.023689  -0.000068   0.000001   0.000011
     9  C   -0.002268  -0.008078  -0.009390   0.009951  -0.002051   0.002475
    10  H    0.000588  -0.007730  -0.000534  -0.001533  -0.000135   0.000117
    11  H    0.000142   0.003097   0.000687   0.003642   0.000178  -0.000235
    12  C   -0.000142   0.006920  -0.002339  -0.253433  -0.010542   0.065988
    13  C   -0.000012   0.000973  -0.000153   0.273612  -0.022289  -0.100399
    14  C    0.000032   0.000104  -0.000187  -0.000008  -0.000001   0.000003
    15  H   -0.000004  -0.000014  -0.000005   0.000002   0.000000   0.000000
    16  H    0.000039  -0.000028   0.000010  -0.000000  -0.000000  -0.000000
    17  H   -0.000038  -0.000001  -0.000009  -0.000000   0.000000   0.000000
    18  C    0.396881   0.380733   0.400263   0.000030  -0.000002   0.000001
    19  H    0.511072  -0.025269  -0.010532  -0.000000   0.000000   0.000000
    20  H   -0.025269   0.537115  -0.022501   0.000037  -0.000000  -0.000001
    21  H   -0.010532  -0.022501   0.492255  -0.000011   0.000000   0.000000
    22  C   -0.000000   0.000037  -0.000011   5.441974   0.400005   0.395341
    23  H    0.000000  -0.000000   0.000000   0.400005   0.497360  -0.028030
    24  H    0.000000  -0.000001   0.000000   0.395341  -0.028030   0.550396
    25  H   -0.000000  -0.000001   0.000000   0.381263  -0.008216  -0.022365
    26  C    0.000000  -0.000017   0.000002  -0.034723  -0.009717   0.016317
    27  H    0.000000   0.000000  -0.000000  -0.010668   0.000843  -0.001934
    28  H   -0.000000  -0.000000   0.000000   0.003405   0.000142  -0.006839
    29  H    0.000000   0.000000  -0.000000   0.002095   0.000161   0.000573
              25         26         27         28         29
     1  O    0.006627   0.000702  -0.000054  -0.000218   0.000022
     2  O    0.000000   0.000011  -0.000000  -0.000000   0.000000
     3  N    0.000021  -0.025326  -0.002358   0.000831   0.002214
     4  H   -0.000003  -0.006871   0.000504   0.000716   0.002136
     5  C   -0.000130   0.000779   0.000372   0.000088  -0.000301
     6  C   -0.000881   0.195119  -0.032851  -0.049606  -0.047705
     7  C    0.000011   0.002735  -0.000816  -0.000754   0.002948
     8  C    0.000002   0.000873  -0.000015   0.000001  -0.000002
     9  C    0.000331   0.021514  -0.000519   0.000015  -0.000482
    10  H   -0.000017   0.000170   0.000037   0.000013  -0.000015
    11  H   -0.000112  -0.000731  -0.000006  -0.000096   0.000079
    12  C    0.019307  -0.084648  -0.017092  -0.006918   0.022307
    13  C   -0.033729  -0.054194   0.006710  -0.001711  -0.001415
    14  C    0.000000   0.000452  -0.000092   0.000047  -0.000115
    15  H    0.000000   0.000306  -0.000006  -0.000007   0.000103
    16  H    0.000000   0.000006   0.000004  -0.000002  -0.000001
    17  H   -0.000000  -0.000062  -0.000005   0.000001  -0.000001
    18  C   -0.000001   0.000005  -0.000000   0.000000  -0.000000
    19  H   -0.000000   0.000000   0.000000  -0.000000   0.000000
    20  H   -0.000001  -0.000017   0.000000  -0.000000   0.000000
    21  H    0.000000   0.000002  -0.000000   0.000000  -0.000000
    22  C    0.381263  -0.034723  -0.010668   0.003405   0.002095
    23  H   -0.008216  -0.009717   0.000843   0.000142   0.000161
    24  H   -0.022365   0.016317  -0.001934  -0.006839   0.000573
    25  H    0.494423   0.001994   0.000129   0.000538  -0.000035
    26  C    0.001994   5.234803   0.425872   0.433276   0.387409
    27  H    0.000129   0.425872   0.484220  -0.028849  -0.016659
    28  H    0.000538   0.433276  -0.028849   0.506528  -0.024469
    29  H   -0.000035   0.387409  -0.016659  -0.024469   0.516452
 Mulliken charges:
               1
     1  O   -0.364604
     2  O   -0.383361
     3  N   -0.211689
     4  H    0.280505
     5  C   -0.048868
     6  C    0.261216
     7  C    0.171717
     8  C    0.148191
     9  C   -0.293852
    10  H    0.161209
    11  H    0.155848
    12  C   -0.139590
    13  C    0.153920
    14  C   -0.382292
    15  H    0.123947
    16  H    0.163887
    17  H    0.165617
    18  C   -0.454675
    19  H    0.151569
    20  H    0.153816
    21  H    0.174047
    22  C   -0.484522
    23  H    0.173050
    24  H    0.148326
    25  H    0.160841
    26  C   -0.506054
    27  H    0.193233
    28  H    0.173868
    29  H    0.154699
 Sum of Mulliken charges =  -0.00000
 Mulliken charges with hydrogens summed into heavy atoms:
               1
     1  O   -0.364604
     2  O   -0.383361
     3  N    0.068816
     5  C   -0.048868
     6  C    0.261216
     7  C    0.171717
     8  C    0.148191
     9  C    0.023205
    12  C   -0.139590
    13  C    0.153920
    14  C    0.071159
    18  C    0.024758
    22  C   -0.002305
    26  C    0.015745
 Electronic spatial extent (au):  <R**2>=           3209.1907
 Charge=             -0.0000 electrons
 Dipole moment (field-independent basis, Debye):
    X=              4.0130    Y=              7.6170    Z=              0.1976  Tot=              8.6117
 Quadrupole moment (field-independent basis, Debye-Ang):
   XX=            -99.0772   YY=            -78.1451   ZZ=            -84.9034
   XY=             12.2264   XZ=              3.7590   YZ=             -2.3430
 Traceless Quadrupole moment (field-independent basis, Debye-Ang):
   XX=            -11.7020   YY=              9.2301   ZZ=              2.4718
   XY=             12.2264   XZ=              3.7590   YZ=             -2.3430
 Octapole moment (field-independent basis, Debye-Ang**2):
  XXX=            111.0408  YYY=             64.9837  ZZZ=              0.9981  XYY=            -34.7937
  XXY=             32.5940  XXZ=             -3.9029  XZZ=              0.2115  YZZ=             -1.2679
  YYZ=              4.7651  XYZ=             -5.2216
 Hexadecapole moment (field-independent basis, Debye-Ang**3):
 XXXX=          -3086.2553 YYYY=          -1297.6640 ZZZZ=           -141.1655 XXXY=             31.0800
 XXXZ=             39.9495 YYYX=             87.4536 YYYZ=            -19.1291 ZZZX=             -3.7806
 ZZZY=              1.7668 XXYY=           -694.4385 XXZZ=           -479.6303 YYZZ=           -245.7349
 XXYZ=            -10.7407 YYXZ=             10.2178 ZZXY=              0.2099
 N-N= 8.988034859630D+02 E-N=-3.273481318282D+03  KE= 6.306136746351D+02
 No NMR shielding tensors so no spin-rotation constants.
 Leave Link  601 at Fri Jan 23 22:32:42 2026, MaxMem=  2147483648 cpu:               1.8 elap:               0.1
 (Enter /data/home/wyx/g16/l9999.exe)
 1\1\GINC-CN012\SP\RCAM-B3LYP\TZVP\C11H15N1O2\WYX\23-Jan-2026\0\\#p CAM
 -B3LYP TZVP em=gd3bj scrf=(Solvent=TetraHydroFuran,NonEquilibrium=Read
 ) Geom=Check Guess=Read\\Title Card Required\\0,1\O,0,2.839936,-1.5741
 2,0.027537\O,0,-3.429685,-1.651347,-0.161017\N,0,-0.667712,1.518274,-0
 .169335\H,0,-0.979804,2.479216,-0.218446\C,0,-1.249328,-0.763224,-0.19
 906\C,0,0.677005,1.338226,-0.016181\C,0,-1.641231,0.581656,-0.233331\C
 ,0,-2.210752,-1.848225,-0.190288\C,0,0.192015,-1.080167,-0.17551\H,0,0
 .400774,-1.882018,0.542703\H,0,0.477238,-1.570612,-1.125705\C,0,1.1470
 7,0.026047,0.046437\C,0,2.518271,-0.402673,0.26487\C,0,-3.030519,1.106
 595,-0.353814\H,0,-3.026178,2.192805,-0.442962\H,0,-3.534303,0.689224,
 -1.222287\H,0,-3.633018,0.832991,0.509189\C,0,-1.705963,-3.270732,-0.1
 84436\H,0,-2.508783,-3.926567,-0.507959\H,0,-0.840672,-3.427047,-0.823
 427\H,0,-1.42028,-3.564684,0.827007\C,0,3.569453,0.526233,0.82321\H,0,
 4.074471,1.064055,0.017929\H,0,3.169884,1.257045,1.521521\H,0,4.31354,
 -0.085163,1.3294\C,0,1.470134,2.602425,0.024857\H,0,1.733665,2.89598,1
 .042272\H,0,2.392356,2.511685,-0.541809\H,0,0.902417,3.424121,-0.41136
 5\\Version=ES64L-G16RevA.03\State=1-A\HF=-633.3193477\RMSD=9.694e-09\D
 ipole=0.470409,3.3534171,0.1120913\Quadrupole=-13.226759,10.8507765,2.
 3759825,2.2003127,1.5122901,-0.5097671\PG=C01 [X(C11H15N1O2)]\\@


 IF YOU GIVE EVERYONE A PIECE OF YOUR MIND,
 PRETTY SOON IT WILL BE ALL GONE.
 Job cpu time:       0 days  0 hours 11 minutes 40.8 seconds.
 Elapsed time:       0 days  0 hours  0 minutes 44.6 seconds.
 File lengths (MBytes):  RWF=    337 Int=      0 D2E=      0 Chk=     67 Scr=      1
 Normal termination of Gaussian 16 at Fri Jan 23 22:32:42 2026.
