 Entering Gaussian System, Link 0=g16
 Input=DDL-S1-cLR-10.gjf
 Output=DDL-S1-cLR-10.log
 Initial command:
 /data/home/wyx/g16/l1.exe "/scr/tmp/wyx/13106/Gau-1978029.inp" -scrdir="/scr/tmp/wyx/13106/"
 Entering Link 1 = /data/home/wyx/g16/l1.exe PID=   1978030.
  
 Copyright (c) 1988,1990,1992,1993,1995,1998,2003,2009,2016,
            Gaussian, Inc.  All Rights Reserved.
  
 This is part of the Gaussian(R) 16 program.  It is based on
 the Gaussian(R) 09 system (copyright 2009, Gaussian, Inc.),
 the Gaussian(R) 03 system (copyright 2003, Gaussian, Inc.),
 the Gaussian(R) 98 system (copyright 1998, Gaussian, Inc.),
 the Gaussian(R) 94 system (copyright 1995, Gaussian, Inc.),
 the Gaussian 92(TM) system (copyright 1992, Gaussian, Inc.),
 the Gaussian 90(TM) system (copyright 1990, Gaussian, Inc.),
 the Gaussian 88(TM) system (copyright 1988, Gaussian, Inc.),
 the Gaussian 86(TM) system (copyright 1986, Carnegie Mellon
 University), and the Gaussian 82(TM) system (copyright 1983,
 Carnegie Mellon University). Gaussian is a federally registered
 trademark of Gaussian, Inc.
  
 This software contains proprietary and confidential information,
 including trade secrets, belonging to Gaussian, Inc.
  
 This software is provided under written license and may be
 used, copied, transmitted, or stored only in accord with that
 written license.
  
 The following legend is applicable only to US Government
 contracts under FAR:
  
                    RESTRICTED RIGHTS LEGEND
  
 Use, reproduction and disclosure by the US Government is
 subject to restrictions as set forth in subparagraphs (a)
 and (c) of the Commercial Computer Software - Restricted
 Rights clause in FAR 52.227-19.
  
 Gaussian, Inc.
 340 Quinnipiac St., Bldg. 40, Wallingford CT 06492
  
  
 ---------------------------------------------------------------
 Warning -- This program may not be used in any manner that
 competes with the business of Gaussian, Inc. or will provide
 assistance to any competitor of Gaussian, Inc.  The licensee
 of this program is prohibited from giving any competitor of
 Gaussian, Inc. access to this program.  By using this program,
 the user acknowledges that Gaussian, Inc. is engaged in the
 business of creating and licensing software in the field of
 computational chemistry and represents and warrants to the
 licensee that it is not a competitor of Gaussian, Inc. and that
 it will not use this program in any manner prohibited above.
 ---------------------------------------------------------------
  

 Cite this work as:
 Gaussian 16, Revision A.03,
 M. J. Frisch, G. W. Trucks, H. B. Schlegel, G. E. Scuseria, 
 M. A. Robb, J. R. Cheeseman, G. Scalmani, V. Barone, 
 G. A. Petersson, H. Nakatsuji, X. Li, M. Caricato, A. V. Marenich, 
 J. Bloino, B. G. Janesko, R. Gomperts, B. Mennucci, H. P. Hratchian, 
 J. V. Ortiz, A. F. Izmaylov, J. L. Sonnenberg, D. Williams-Young, 
 F. Ding, F. Lipparini, F. Egidi, J. Goings, B. Peng, A. Petrone, 
 T. Henderson, D. Ranasinghe, V. G. Zakrzewski, J. Gao, N. Rega, 
 G. Zheng, W. Liang, M. Hada, M. Ehara, K. Toyota, R. Fukuda, 
 J. Hasegawa, M. Ishida, T. Nakajima, Y. Honda, O. Kitao, H. Nakai, 
 T. Vreven, K. Throssell, J. A. Montgomery, Jr., J. E. Peralta, 
 F. Ogliaro, M. J. Bearpark, J. J. Heyd, E. N. Brothers, K. N. Kudin, 
 V. N. Staroverov, T. A. Keith, R. Kobayashi, J. Normand, 
 K. Raghavachari, A. P. Rendell, J. C. Burant, S. S. Iyengar, 
 J. Tomasi, M. Cossi, J. M. Millam, M. Klene, C. Adamo, R. Cammi, 
 J. W. Ochterski, R. L. Martin, K. Morokuma, O. Farkas, 
 J. B. Foresman, and D. J. Fox, Gaussian, Inc., Wallingford CT, 2016.
 
 ******************************************
 Gaussian 16:  ES64L-G16RevA.03 25-Dec-2016
                23-Jan-2026 
 ******************************************
 %nprocshared=16
 Will use up to   16 processors via shared memory.
 %mem=16GB
 %oldchk=DDL-LR-10.chk
 %chk=DDL-S1-cLR-10.chk
 Copying data from "DDL-LR-10.chk" to current chk file "DDL-S1-cLR-10.chk"
 IOpt=  2 FromEx=T IUOpen= 4 IOptOp= 5 NList=   0 IFRang= 0 IUIn= 4 IUOut= 2.
 ----------------------------------------------------------------------
 #p CAM-B3LYP TZVP em=gd3bj td(nstates=6,root=1) scrf=(Solvent=TetraHyd
 roFuran,CorrectedLR,NonEquilibrium=Save) Geom=Check Guess=Read
 ----------------------------------------------------------------------
 1/29=2,30=1,38=1,172=1/1;
 2/12=2,40=1/2;
 3/5=19,7=101,11=9,14=-4,25=1,30=1,70=9002201,71=1,72=20,74=-40,116=-2,124=41/1,2,3,8;
 4/5=1/1;
 5/5=2,38=6,53=20/2;
 8/6=1,10=1,107=1,108=6/1;
 9/8=1,15=1,41=6,42=1,70=2,73=22/14;
 10/5=4,13=10,28=1,74=20/2;
 6/7=2,8=2,9=2,10=2,22=-1/1;
 99/5=1,9=1/99;
 Leave Link    1 at Fri Jan 23 20:13:34 2026, MaxMem=  2147483648 cpu:               0.8 elap:               0.2
 (Enter /data/home/wyx/g16/l101.exe)
 -------------------
 Title Card Required
 -------------------
 Structure from the checkpoint file:  "DDL-S1-cLR-10.chk"
 Charge =  0 Multiplicity = 1
 Z-Matrix found in chk file.
 O,0,2.83728,-1.567999,0.10986
 O,0,-3.423925,-1.631119,-0.003771
 N,0,-0.645845,1.513416,-0.299757
 H,0,-0.955941,2.471832,-0.352195
 C,0,-1.241712,-0.759173,-0.215224
 C,0,0.693005,1.312111,-0.075837
 C,0,-1.620925,0.558075,-0.272713
 C,0,-2.219571,-1.834676,-0.130256
 C,0,0.210436,-1.100856,-0.29372
 H,0,0.445614,-1.932095,0.372715
 H,0,0.451476,-1.50274,-1.289925
 C,0,1.149958,0.023988,0.006447
 C,0,2.514862,-0.396705,0.30537
 C,0,-3.009506,1.094465,-0.316623
 H,0,-3.011495,2.161633,-0.530987
 H,0,-3.604571,0.585998,-1.067194
 H,0,-3.517688,0.936001,0.630868
 C,0,-1.723892,-3.253853,-0.188795
 H,0,-2.560126,-3.924674,-0.349755
 H,0,-0.988069,-3.407961,-0.972958
 H,0,-1.246045,-3.529866,0.749934
 C,0,3.544574,0.537713,0.89243
 H,0,4.056132,1.087352,0.100054
 H,0,3.121944,1.258039,1.587977
 H,0,4.285845,-0.070162,1.406075
 C,0,1.467762,2.58493,0.030338
 H,0,1.591885,2.894403,1.067865
 H,0,2.451681,2.502089,-0.414331
 H,0,0.946855,3.389833,-0.485892
 Recover connectivity data from disk.
 ITRead=  0  0  0  0  0  0  0  0  0  0  0  0  0  0  0  0  0  0  0  0
 ITRead=  0  0  0  0  0  0  0  0  0
 MicOpt= -1 -1 -1 -1 -1 -1 -1 -1 -1 -1 -1 -1 -1 -1 -1 -1 -1 -1 -1 -1
 MicOpt= -1 -1 -1 -1 -1 -1 -1 -1 -1
 NAtoms=     29 NQM=       29 NQMF=       0 NMMI=      0 NMMIF=      0
                NMic=       0 NMicF=      0.
                    Isotopes and Nuclear Properties:
 (Nuclear quadrupole moments (NQMom) in fm**2, nuclear magnetic moments (NMagM)
  in nuclear magnetons)

  Atom         1           2           3           4           5           6           7           8           9          10
 IAtWgt=          16          16          14           1          12          12          12          12          12           1
 AtmWgt=  15.9949146  15.9949146  14.0030740   1.0078250  12.0000000  12.0000000  12.0000000  12.0000000  12.0000000   1.0078250
 NucSpn=           0           0           2           1           0           0           0           0           0           1
 AtZEff=   5.6000000   5.6000000   4.5500000   1.0000000   3.6000000   3.6000000   3.6000000   3.6000000   3.6000000   1.0000000
 NQMom=    0.0000000   0.0000000   2.0440000   0.0000000   0.0000000   0.0000000   0.0000000   0.0000000   0.0000000   0.0000000
 NMagM=    0.0000000   0.0000000   0.4037610   2.7928460   0.0000000   0.0000000   0.0000000   0.0000000   0.0000000   2.7928460
 AtZNuc=   8.0000000   8.0000000   7.0000000   1.0000000   6.0000000   6.0000000   6.0000000   6.0000000   6.0000000   1.0000000

  Atom        11          12          13          14          15          16          17          18          19          20
 IAtWgt=           1          12          12          12           1           1           1          12           1           1
 AtmWgt=   1.0078250  12.0000000  12.0000000  12.0000000   1.0078250   1.0078250   1.0078250  12.0000000   1.0078250   1.0078250
 NucSpn=           1           0           0           0           1           1           1           0           1           1
 AtZEff=   1.0000000   3.6000000   3.6000000   3.6000000   1.0000000   1.0000000   1.0000000   3.6000000   1.0000000   1.0000000
 NQMom=    0.0000000   0.0000000   0.0000000   0.0000000   0.0000000   0.0000000   0.0000000   0.0000000   0.0000000   0.0000000
 NMagM=    2.7928460   0.0000000   0.0000000   0.0000000   2.7928460   2.7928460   2.7928460   0.0000000   2.7928460   2.7928460
 AtZNuc=   1.0000000   6.0000000   6.0000000   6.0000000   1.0000000   1.0000000   1.0000000   6.0000000   1.0000000   1.0000000

  Atom        21          22          23          24          25          26          27          28          29
 IAtWgt=           1          12           1           1           1          12           1           1           1
 AtmWgt=   1.0078250  12.0000000   1.0078250   1.0078250   1.0078250  12.0000000   1.0078250   1.0078250   1.0078250
 NucSpn=           1           0           1           1           1           0           1           1           1
 AtZEff=   1.0000000   3.6000000   1.0000000   1.0000000   1.0000000   3.6000000   1.0000000   1.0000000   1.0000000
 NQMom=    0.0000000   0.0000000   0.0000000   0.0000000   0.0000000   0.0000000   0.0000000   0.0000000   0.0000000
 NMagM=    2.7928460   0.0000000   2.7928460   2.7928460   2.7928460   0.0000000   2.7928460   2.7928460   2.7928460
 AtZNuc=   1.0000000   6.0000000   1.0000000   1.0000000   1.0000000   6.0000000   1.0000000   1.0000000   1.0000000
 Leave Link  101 at Fri Jan 23 20:13:37 2026, MaxMem=  2147483648 cpu:               0.8 elap:               0.1
 (Enter /data/home/wyx/g16/l202.exe)
                          Input orientation:                          
 ---------------------------------------------------------------------
 Center     Atomic      Atomic             Coordinates (Angstroms)
 Number     Number       Type             X           Y           Z
 ---------------------------------------------------------------------
      1          8           0        2.837280   -1.567999    0.109860
      2          8           0       -3.423925   -1.631119   -0.003771
      3          7           0       -0.645845    1.513416   -0.299757
      4          1           0       -0.955941    2.471832   -0.352195
      5          6           0       -1.241712   -0.759173   -0.215224
      6          6           0        0.693005    1.312111   -0.075837
      7          6           0       -1.620925    0.558075   -0.272713
      8          6           0       -2.219571   -1.834676   -0.130256
      9          6           0        0.210436   -1.100856   -0.293720
     10          1           0        0.445614   -1.932095    0.372715
     11          1           0        0.451476   -1.502740   -1.289925
     12          6           0        1.149958    0.023988    0.006447
     13          6           0        2.514862   -0.396705    0.305370
     14          6           0       -3.009506    1.094465   -0.316623
     15          1           0       -3.011495    2.161633   -0.530987
     16          1           0       -3.604571    0.585998   -1.067194
     17          1           0       -3.517688    0.936001    0.630868
     18          6           0       -1.723892   -3.253853   -0.188795
     19          1           0       -2.560126   -3.924674   -0.349755
     20          1           0       -0.988069   -3.407961   -0.972958
     21          1           0       -1.246045   -3.529866    0.749934
     22          6           0        3.544574    0.537713    0.892430
     23          1           0        4.056132    1.087352    0.100054
     24          1           0        3.121944    1.258039    1.587977
     25          1           0        4.285845   -0.070162    1.406075
     26          6           0        1.467762    2.584930    0.030338
     27          1           0        1.591885    2.894403    1.067865
     28          1           0        2.451681    2.502089   -0.414331
     29          1           0        0.946855    3.389833   -0.485892
 ---------------------------------------------------------------------
                    Distance matrix (angstroms):
                    1          2          3          4          5
     1  O    0.000000
     2  O    6.262554   0.000000
     3  N    4.668518   4.206357   0.000000
     4  H    5.560778   4.800682   1.008697   0.000000
     5  C    4.171098   2.359461   2.350928   3.246509   0.000000
     6  C    3.595474   5.061315   1.372291   2.034785   2.837741
     7  C    4.954003   2.848808   1.365353   2.027557   1.371951
     8  C    5.069567   1.227967   3.703385   4.493554   1.456068
     9  C    2.698409   3.684268   2.750940   3.758717   1.493868
    10  H    2.433459   3.899444   3.676282   4.678079   2.137402
    11  H    2.766897   4.085267   3.358831   4.319419   2.138869
    12  C    2.322105   4.864143   2.353097   3.248904   2.526374
    13  C    1.230491   6.073593   3.742300   4.550535   3.809757
    14  C    6.438595   2.774604   2.400562   2.472961   2.563465
    15  H    6.966277   3.851366   2.463727   2.086502   3.429715
    16  H    6.893664   2.465585   3.194233   3.329089   2.849288
    17  H    6.850335   2.646066   3.073590   3.144477   2.961343
    18  C    4.871918   2.357459   4.888901   5.779266   2.540989
    19  H    5.907381   2.475126   5.765396   6.594597   3.431721
    20  H    4.380782   3.166999   4.978983   5.912558   2.766690
    21  H    4.575168   2.986046   5.186211   6.108947   2.933988
    22  C    2.355144   7.353026   4.464630   5.054161   5.081077
    23  H    2.921744   7.959404   4.738140   5.219405   5.619271
    24  H    3.201930   7.330027   4.221965   4.676185   5.134411
    25  H    2.453982   7.991546   5.453361   6.085192   5.801485
    26  C    4.373640   6.457928   2.392580   2.456310   4.310983
    27  H    4.730942   6.840110   2.963942   2.947296   4.798355
    28  H    4.121781   7.195465   3.253501   3.408323   4.931189
    29  H    5.339356   6.674288   2.468255   2.116892   4.698653
                    6          7          8          9         10
     6  C    0.000000
     7  C    2.441639   0.000000
     8  C    4.288161   2.470613   0.000000
     9  C    2.470376   2.471108   2.543648   0.000000
    10  H    3.284399   3.299713   2.713979   1.091056   0.000000
    11  H    3.075017   3.094596   2.930786   1.100925   1.717193
    12  C    1.369247   2.835661   3.850590   1.496020   2.111046
    13  C    2.526764   4.283751   4.967131   2.482965   2.577546
    14  C    3.716710   1.489228   3.039506   3.897177   4.644686
    15  H    3.827815   2.138174   4.093680   4.591402   5.433865
    16  H    4.469809   2.137015   2.942064   4.242407   4.981780
    17  H    4.286120   2.134712   3.152946   4.347707   4.899018
    18  C    5.167415   3.814242   1.504390   2.896210   2.601748
    19  H    6.171046   4.580728   2.128908   3.956400   3.677881
    20  H    5.090178   4.076799   2.168403   2.687101   2.458549
    21  H    5.280772   4.230556   2.143865   3.018384   2.357303
    22  C    3.109450   5.295314   6.316604   3.899787   3.996700
    23  H    3.375215   5.713849   6.926452   4.442149   4.714578
    24  H    2.944647   5.142657   6.406949   4.193095   4.337806
    25  H    4.124953   6.172758   6.913339   4.534379   4.391128
    26  C    1.493851   3.706746   5.758049   3.907800   4.643869
    27  H    2.149346   4.192580   6.190871   4.441217   5.009217
    28  H    2.150248   4.515016   6.380347   4.244872   4.930085
    29  H    2.132959   3.828550   6.119495   4.554726   5.413997
                   11         12         13         14         15
    11  H    0.000000
    12  C    2.121169   0.000000
    13  C    2.832992   1.459212   0.000000
    14  C    4.435221   4.307138   5.755789   0.000000
    15  H    5.098606   4.709146   6.146967   1.088487   0.000000
    16  H    4.567708   4.906537   6.347999   1.084434   1.766885
    17  H    5.038965   4.796727   6.186575   1.086784   1.763041
    18  C    3.001851   4.363642   5.135614   4.536189   5.576962
    19  H    3.977365   5.429874   6.215405   5.039325   6.105711
    20  H    2.408864   4.160369   4.792944   4.978838   5.942219
    21  H    3.339437   4.350113   4.915156   5.062783   6.095140
    22  C    4.300393   2.604432   1.509332   6.687881   6.902556
    23  H    4.651254   3.096022   2.149440   7.077917   7.176604
    24  H    4.799544   2.812978   2.179864   6.422534   6.551760
    25  H    4.901335   3.435347   2.110583   7.585921   7.873010
    26  C    4.414179   2.580696   3.172098   4.731574   4.534094
    27  H    5.118063   3.092117   3.502096   5.131217   4.927919
    28  H    4.561375   2.830640   2.987468   5.640524   5.475017
    29  H    4.982885   3.407721   4.174040   4.577134   4.144761
                   16         17         18         19         20
    16  H    0.000000
    17  H    1.735934   0.000000
    18  C    4.364974   4.630813   0.000000
    19  H    4.685269   5.050219   1.084065   0.000000
    20  H    4.775633   5.276480   1.086322   1.768258   0.000000
    21  H    5.079856   5.011837   1.088914   1.758408   1.746359
    22  C    7.413011   7.078318   6.580407   7.663112   6.292286
    23  H    7.765320   7.593907   7.234513   8.312497   6.841283
    24  H    7.262753   6.715987   6.855379   7.931030   6.724742
    25  H    8.294954   7.906228   6.985445   8.050312   6.679436
    26  C    5.561373   5.285292   6.657782   7.664418   6.553812
    27  H    6.073744   5.489448   7.097508   8.108554   7.109213
    28  H    6.385595   6.259268   7.114573   8.150194   6.860950
    29  H    5.377256   5.215418   7.166570   8.112919   7.084572
                   21         22         23         24         25
    21  H    0.000000
    22  C    6.286138   0.000000
    23  H    7.060745   1.091629   0.000000
    24  H    6.534958   1.086863   1.765150   0.000000
    25  H    6.557582   1.087578   1.760198   1.775351   0.000000
    26  C    6.728543   3.040962   2.991197   2.631197   4.108985
    27  H    7.030374   3.065577   3.205402   2.299844   4.020006
    28  H    7.170298   2.600156   2.200076   2.450745   3.646164
    29  H    7.363308   4.096645   3.913100   3.684629   5.167200
                   26         27         28         29
    26  C    0.000000
    27  H    1.089790   0.000000
    28  H    1.082908   1.757858   0.000000
    29  H    1.088901   1.753760   1.748631   0.000000
 Stoichiometry    C11H15NO2
 Framework group  C1[X(C11H15NO2)]
 Deg. of freedom    81
 Full point group                 C1      NOp   1
 RotChk:  IX=0 Diff= 9.35D-16
 Largest Abelian subgroup         C1      NOp   1
 Largest concise Abelian subgroup C1      NOp   1
                         Standard orientation:                         
 ---------------------------------------------------------------------
 Center     Atomic      Atomic             Coordinates (Angstroms)
 Number     Number       Type             X           Y           Z
 ---------------------------------------------------------------------
      1          8           0        2.287231   -2.280285   -0.223974
      2          8           0       -3.607408   -0.250473    0.369897
      3          7           0        0.022570    1.801944   -0.181721
      4          1           0        0.049680    2.810277   -0.181531
      5          6           0       -1.291996   -0.143967   -0.071216
      6          6           0        1.230766    1.154723   -0.114260
      7          6           0       -1.209284    1.225456   -0.061781
      8          6           0       -2.561092   -0.835835    0.104422
      9          6           0       -0.055373   -0.944437   -0.319516
     10          1           0       -0.048121   -1.841821    0.301011
     11          1           0       -0.065097   -1.348293   -1.343645
     12          6           0        1.233134   -0.214505   -0.107329
     13          6           0        2.399389   -1.081051    0.027753
     14          6           0       -2.333133    2.194803    0.061230
     15          1           0       -1.997212    3.211906   -0.132322
     16          1           0       -3.136859    1.955281   -0.626267
     17          1           0       -2.767081    2.162672    1.057099
     18          6           0       -2.580740   -2.333595   -0.035278
     19          1           0       -3.605690   -2.678096   -0.112691
     20          1           0       -2.022501   -2.680430   -0.900247
     21          1           0       -2.131992   -2.803946    0.838294
     22          6           0        3.737040   -0.576147    0.511327
     23          1           0        4.321442   -0.185386   -0.323798
     24          1           0        3.653769    0.204418    1.263029
     25          1           0        4.277973   -1.423228    0.926863
     26          6           0        2.395349    2.089428   -0.073503
     27          1           0        2.719988    2.282532    0.948731
     28          1           0        3.243966    1.708514   -0.627979
     29          1           0        2.126809    3.048830   -0.512980
 ---------------------------------------------------------------------
 Rotational constants (GHZ):           1.0788077           0.4906132           0.3453601
 Leave Link  202 at Fri Jan 23 20:13:38 2026, MaxMem=  2147483648 cpu:               0.0 elap:               0.0
 (Enter /data/home/wyx/g16/l301.exe)
 Standard basis: TZVP (5D, 7F)
 Ernie: Thresh=  0.10000D-02 Tol=  0.10000D-05 Strict=F.
 There are   370 symmetry adapted cartesian basis functions of A   symmetry.
 There are   356 symmetry adapted basis functions of A   symmetry.
   356 basis functions,   610 primitive gaussians,   370 cartesian basis functions
    52 alpha electrons       52 beta electrons
       nuclear repulsion energy       900.6293921568 Hartrees.
 IExCor=20419 DFT=T Ex+Corr=CAM-B3LYP ExCW=0 ScaHFX=  1.000000
 ScaDFX=  1.000000  1.000000  1.000000  0.810000 ScalE2=  1.000000  1.000000
 IRadAn=      5 IRanWt=     -1 IRanGd=            0 ICorTp=0 IEmpDi=141
 HFx  wShort=  0.000000 wLong=  0.330000 cFull=  0.190000 cShort=  0.000000 cLong=  0.460000
 DFx  wShort=  0.000000 wLong=  0.330000 cFull=  0.190000 cShort=  0.000000 cLong=  0.460000
 NAtoms=   29 NActive=   29 NUniq=   29 SFac= 1.00D+00 NAtFMM=   60 NAOKFM=F Big=F
 Integral buffers will be    131072 words long.
 Raffenetti 1 integral format.
 Two-electron integral symmetry is turned on.
 R6Disp:  Grimme-D3(BJ) Dispersion energy=       -0.0261836516 Hartrees.
 Nuclear repulsion after empirical dispersion term =      900.6032085051 Hartrees.
 ------------------------------------------------------------------------------
 Polarizable Continuum Model (PCM)
 =================================
 Model                : PCM.
 Atomic radii         : UFF (Universal Force Field).
 Polarization charges : Total charges.
 Charge compensation  : None.
 Solution method      : On-the-fly selection.
 Cavity type          : Scaled VdW (van der Waals Surface) (Alpha=1.100).
 Cavity algorithm     : GePol (No added spheres)
                        Default sphere list used, NSphG=   29.
                        Lebedev-Laikov grids with approx.  5.0 points / Ang**2.
                        Smoothing algorithm: York/Karplus (Gamma=1.0000).
                        Polarization charges: spherical gaussians, with
                                              point-specific exponents (IZeta= 3).
                        Self-potential: point-specific (ISelfS= 7).
                        Self-field    : sphere-specific E.n sum rule (ISelfD= 2).
 1st derivatives      : Analytical E(r).r(x)/FMM algorithm (CHGder, D1EAlg=3).
                        Cavity 1st derivative terms included.
 Solvent              : TetraHydroFuran, Eps=   7.425700 Eps(inf)=   1.974025
 ------------------------------------------------------------------------------
 GePol: Number of generator spheres                  =      29
 GePol: Total number of spheres                      =      29
 GePol: Number of exposed spheres                    =      29 (100.00%)
 GePol: Number of points                             =    2107
 GePol: Average weight of points                     =       0.13
 GePol: Minimum weight of points                     =   0.26D-08
 GePol: Maximum weight of points                     =    0.20577
 GePol: Number of points with low weight             =     138
 GePol: Fraction of low-weight points (<1% of avg)   =       6.55%
 GePol: Cavity surface area                          =    268.446 Ang**2
 GePol: Cavity volume                                =    286.477 Ang**3
 Leave Link  301 at Fri Jan 23 20:13:38 2026, MaxMem=  2147483648 cpu:               0.6 elap:               0.0
 (Enter /data/home/wyx/g16/l302.exe)
 NPDir=0 NMtPBC=     1 NCelOv=     1 NCel=       1 NClECP=     1 NCelD=      1
         NCelK=      1 NCelE2=     1 NClLst=     1 CellRange=     0.0.
 One-electron integrals computed using PRISM.
 One-electron integral symmetry used in STVInt
 NBasis=   356 RedAO= T EigKep=  4.67D-05  NBF=   356
 NBsUse=   356 1.00D-06 EigRej= -1.00D+00 NBFU=   356
 Precomputing XC quadrature grid using
 IXCGrd= 4 IRadAn=           5 IRanWt=          -1 IRanGd=           0 AccXCQ= 0.00D+00.
 Generated NRdTot=       0 NPtTot=           0 NUsed=           0 NTot=          32
 NSgBfM=   366   366   366   366   366 MxSgAt=    29 MxSgA2=    29.
 Leave Link  302 at Fri Jan 23 20:13:39 2026, MaxMem=  2147483648 cpu:               3.1 elap:               0.2
 (Enter /data/home/wyx/g16/l303.exe)
 DipDrv:  MaxL=1.
 Leave Link  303 at Fri Jan 23 20:13:39 2026, MaxMem=  2147483648 cpu:               0.6 elap:               0.0
 (Enter /data/home/wyx/g16/l308.exe)
 Leave Link  308 at Fri Jan 23 20:13:39 2026, MaxMem=  2147483648 cpu:               0.7 elap:               0.1
 (Enter /data/home/wyx/g16/l401.exe)
 Initial guess from the checkpoint file:  "DDL-S1-cLR-10.chk"
 B after Tr=     0.000000    0.000000    0.000000
         Rot=    1.000000   -0.000000    0.000000    0.000000 Ang=   0.00 deg.
 Guess basis will be translated and rotated to current coordinates.
 JPrj=2 DoOrth=T DoCkMO=T.
 Leave Link  401 at Fri Jan 23 20:13:39 2026, MaxMem=  2147483648 cpu:               2.2 elap:               0.2
 (Enter /data/home/wyx/g16/l502.exe)
 Integral symmetry usage will be decided dynamically.
 Closed shell SCF:
 Using DIIS extrapolation, IDIIS=  1040.
 NGot=  2147483648 LenX=  2147200095 LenY=  2147062754
 Requested convergence on RMS density matrix=1.00D-08 within 128 cycles.
 Requested convergence on MAX density matrix=1.00D-06.
 Requested convergence on             energy=1.00D-06.
 No special actions if energy rises.
 Fock matrices will be formed incrementally for  20 cycles.

 Cycle   1  Pass 1  IDiag  1:
 FoFJK:  IHMeth= 1 ICntrl=       0 DoSepK=T KAlg= 0 I1Cent=           0 FoldK=F
 IRaf=         1 NMat=       1 IRICut=       1 DoRegI=T DoRafI=F ISym2E= 0 IDoP0=0 IntGTp=1.
 FoFCou: FMM=F IPFlag=           0 FMFlag=      100000 FMFlg1=           0
         NFxFlg=           0 DoJE=T BraDBF=F KetDBF=F FulRan=T
         wScrn=  0.000000 ICntrl=       500 IOpCl=  0 I1Cent=           0 NGrid=           0
         NMat0=    1 NMatS0=      1 NMatT0=    0 NMatD0=    1 NMtDS0=    0 NMtDT0=    0
 Symmetry not used in FoFCou.
 Inv3:  Mode=1 IEnd=    13318347.
 Iteration    1 A*A^-1 deviation from unit magnitude is 3.22D-15 for    489.
 Iteration    1 A*A^-1 deviation from orthogonality  is 1.89D-15 for   2018   1604.
 Iteration    1 A^-1*A deviation from unit magnitude is 3.33D-15 for   1425.
 Iteration    1 A^-1*A deviation from orthogonality  is 3.79D-15 for   1401   1348.
 E= -633.326998558571    
 DIIS: error= 1.54D-08 at cycle   1 NSaved=   1.
 NSaved= 1 IEnMin= 1 EnMin= -633.326998558571     IErMin= 1 ErrMin= 1.54D-08
 ErrMax= 1.54D-08  0.00D+00 EMaxC= 1.00D-01 BMatC= 6.26D-14 BMatP= 6.26D-14
 IDIUse=1 WtCom= 1.00D+00 WtEn= 0.00D+00
 Coeff-Com:  0.100D+01
 Coeff:      0.100D+01
 Gap=     0.231 Goal=   None    Shift=    0.000
 RMSDP=2.88D-09 MaxDP=7.69D-08              OVMax= 3.27D-07

 Error on total polarization charges =  0.01419
 SCF Done:  E(RCAM-B3LYP) =  -633.326998559     A.U. after    1 cycles
            NFock=  1  Conv=0.29D-08     -V/T= 2.0041
 KE= 6.307352899970D+02 PE=-3.277277577519D+03 EE= 1.112612080458D+03
 Leave Link  502 at Fri Jan 23 20:13:45 2026, MaxMem=  2147483648 cpu:              85.1 elap:               5.6
 (Enter /data/home/wyx/g16/l801.exe)
 DoSCS=F DFT=T ScalE2(SS,OS)=  1.000000  1.000000
 ExpMin= 9.52D-02 ExpMax= 2.70D+04 ExpMxC= 9.22D+02 IAcc=3 IRadAn=         5 AccDes= 0.00D+00
 HarFok:  IExCor=  205 AccDes= 0.00D+00 IRadAn=         5 IDoV=-2 UseB2=F ITyADJ=14
 ICtDFT= 12500011 ScaDFX=  1.000000  1.000000  1.000000  1.000000
 Largest valence mixing into a core orbital is  5.62D-05
 Largest core mixing into a valence orbital is  1.18D-05
 Range of M.O.s used for correlation:    15   356
 NBasis=   356 NAE=    52 NBE=    52 NFC=    14 NFV=     0
 NROrb=    342 NOA=    38 NOB=    38 NVA=   304 NVB=   304

 **** Warning!!: The largest alpha MO coefficient is  0.58421864D+02

 Leave Link  801 at Fri Jan 23 20:13:46 2026, MaxMem=  2147483648 cpu:               1.0 elap:               0.1
 (Enter /data/home/wyx/g16/l914.exe)
 RHF ground state
 Two-electron integrals replicated using symmetry.
 MDV=  2147483648 DFT=T DoStab=F Mixed=T DoRPA=T DoScal=F NonHer=T
 NEqPCM:  Using equilibrium solvation (IEInf=0, Eps=   7.4257, EpsInf=   1.9740)
 Making orbital integer symmetry assigments:
 Orbital symmetries:
       Occupied  (A) (A) (A) (A) (A) (A) (A) (A) (A) (A) (A) (A)
                 (A) (A) (A) (A) (A) (A) (A) (A) (A) (A) (A) (A)
                 (A) (A) (A) (A) (A) (A) (A) (A) (A) (A) (A) (A)
                 (A) (A) (A) (A) (A) (A) (A) (A) (A) (A) (A) (A)
                 (A) (A) (A) (A)
       Virtual   (A) (A) (A) (A) (A) (A) (A) (A) (A) (A) (A) (A)
                 (A) (A) (A) (A) (A) (A) (A) (A) (A) (A) (A) (A)
                 (A) (A) (A) (A) (A) (A) (A) (A) (A) (A) (A) (A)
                 (A) (A) (A) (A) (A) (A) (A) (A) (A) (A) (A) (A)
                 (A) (A) (A) (A) (A) (A) (A) (A) (A) (A) (A) (A)
                 (A) (A) (A) (A) (A) (A) (A) (A) (A) (A) (A) (A)
                 (A) (A) (A) (A) (A) (A) (A) (A) (A) (A) (A) (A)
                 (A) (A) (A) (A) (A) (A) (A) (A) (A) (A) (A) (A)
                 (A) (A) (A) (A) (A) (A) (A) (A) (A) (A) (A) (A)
                 (A) (A) (A) (A) (A) (A) (A) (A) (A) (A) (A) (A)
                 (A) (A) (A) (A) (A) (A) (A) (A) (A) (A) (A) (A)
                 (A) (A) (A) (A) (A) (A) (A) (A) (A) (A) (A) (A)
                 (A) (A) (A) (A) (A) (A) (A) (A) (A) (A) (A) (A)
                 (A) (A) (A) (A) (A) (A) (A) (A) (A) (A) (A) (A)
                 (A) (A) (A) (A) (A) (A) (A) (A) (A) (A) (A) (A)
                 (A) (A) (A) (A) (A) (A) (A) (A) (A) (A) (A) (A)
                 (A) (A) (A) (A) (A) (A) (A) (A) (A) (A) (A) (A)
                 (A) (A) (A) (A) (A) (A) (A) (A) (A) (A) (A) (A)
                 (A) (A) (A) (A) (A) (A) (A) (A) (A) (A) (A) (A)
                 (A) (A) (A) (A) (A) (A) (A) (A) (A) (A) (A) (A)
                 (A) (A) (A) (A) (A) (A) (A) (A) (A) (A) (A) (A)
                 (A) (A) (A) (A) (A) (A) (A) (A) (A) (A) (A) (A)
                 (A) (A) (A) (A) (A) (A) (A) (A) (A) (A) (A) (A)
                 (A) (A) (A) (A) (A) (A) (A) (A) (A) (A) (A) (A)
                 (A) (A) (A) (A) (A) (A) (A) (A) (A) (A) (A) (A)
                 (A) (A) (A) (A)
 PCM Corrected Linear-Response:
 Compute the excitation energies in the ground state reaction field.
    24 initial guesses have been made.
 Convergence on wavefunction:    0.000001000000000
 Davidson Disk Diagonalization:  ConvIn= 1.00D-06 SkipCon=T Conv= 1.00D-06.
 Max sub-space:  2000 roots to seek:    24 dimension of matrix:        23104
 Iteration     1 Dimension    24 NMult     0 NNew     24
 CISAX will form    24 AO SS matrices at one time.
 NMat=    24 NSing=    24 JSym2X= 0.
 FoFJK:  IHMeth= 1 ICntrl=       0 DoSepK=T KAlg= 0 I1Cent=           0 FoldK=F
 IRaf=         1 NMat=      48 IRICut=       1 DoRegI=T DoRafI=F ISym2E= 0 IDoP0=3 IntGTp=3.
 FoFCou: FMM=F IPFlag=           0 FMFlag=      100000 FMFlg1=           0
         NFxFlg=           0 DoJE=F BraDBF=F KetDBF=F FulRan=T
         wScrn=  0.000000 ICntrl=       500 IOpCl=  0 I1Cent=           0 NGrid=           0
         NMat0=   24 NMatS0=     24 NMatT0=    0 NMatD0=   24 NMtDS0=    0 NMtDT0=    0
 Symmetry not used in FoFCou.
 New state      2 was old state      3
 New state      3 was old state      4
 New state      4 was old state      2
 New state      5 was old state      6
 New state      6 was old state      5
 Excitation Energies [eV] at current iteration:
 Root      1 :     3.845278814608033
 Root      2 :     4.273941457098183
 Root      3 :     4.470042499613480
 Root      4 :     5.475516720627050
 Root      5 :     6.101750204160982
 Root      6 :     6.489055349213339
 Root      7 :     6.660362537944303
 Root      8 :     6.762562533693167
 Root      9 :     6.969461379674555
 Root     10 :     7.009660727038735
 Root     11 :     7.254096401426685
 Root     12 :     7.382649294440805
 Root     13 :     7.498316908044326
 Root     14 :     7.570630810150099
 Root     15 :     7.764917464541207
 Root     16 :     7.956978320209963
 Root     17 :     8.100455001863578
 Root     18 :     8.173720988072507
 Root     19 :     8.263461920671926
 Root     20 :     8.512073648958806
 Root     21 :     8.664952198765905
 Root     22 :     8.891406755220402
 Root     23 :     9.051593872117042
 Root     24 :     9.134872781465921
 Iteration     2 Dimension    36 NMult    24 NNew     12
 CISAX will form    12 AO SS matrices at one time.
 NMat=    12 NSing=    12 JSym2X= 0.
 Root      1 not converged, maximum delta is    0.042638448117972
 Root      2 not converged, maximum delta is    0.074529075480430
 Root      3 not converged, maximum delta is    0.091860161633107
 Root      4 not converged, maximum delta is    0.205926399699516
 New state      5 was old state      6
 Root      5 not converged, maximum delta is    0.236196477120818
 New state      6 was old state      5
 Root      6 not converged, maximum delta is    0.130150727038441
 Excitation Energies [eV] at current iteration:
 Root      1 :     3.381516388540514   Change is   -0.463762426067518
 Root      2 :     4.044434445829023   Change is   -0.229507011269159
 Root      3 :     4.200147159963345   Change is   -0.269895339650134
 Root      4 :     5.158329072868391   Change is   -0.317187647758659
 Root      5 :     5.654573383037822   Change is   -0.834481966175517
 Root      6 :     5.972595679861868   Change is   -0.129154524299114
 Iteration     3 Dimension    48 NMult    36 NNew     12
 CISAX will form    12 AO SS matrices at one time.
 NMat=    12 NSing=    12 JSym2X= 0.
 Root      1 not converged, maximum delta is    0.009638956416161
 Root      2 not converged, maximum delta is    0.014783493399481
 Root      3 not converged, maximum delta is    0.013853259936940
 Root      4 not converged, maximum delta is    0.025364602567022
 Root      5 not converged, maximum delta is    0.026404000984592
 Root      6 not converged, maximum delta is    0.019442600944968
 Excitation Energies [eV] at current iteration:
 Root      1 :     3.361637405473690   Change is   -0.019878983066824
 Root      2 :     4.030896341579150   Change is   -0.013538104249873
 Root      3 :     4.185751857635275   Change is   -0.014395302328070
 Root      4 :     5.136951665489089   Change is   -0.021377407379303
 Root      5 :     5.608978797481297   Change is   -0.045594585556525
 Root      6 :     5.962327378841656   Change is   -0.010268301020212
 Iteration     4 Dimension    60 NMult    48 NNew     12
 CISAX will form    12 AO SS matrices at one time.
 NMat=    12 NSing=    12 JSym2X= 0.
 Root      1 not converged, maximum delta is    0.002525200268430
 Root      2 not converged, maximum delta is    0.001848553696135
 Root      3 not converged, maximum delta is    0.002241052361418
 Root      4 not converged, maximum delta is    0.002539921498667
 Root      5 not converged, maximum delta is    0.004628503755523
 Root      6 not converged, maximum delta is    0.004242437767811
 Excitation Energies [eV] at current iteration:
 Root      1 :     3.359990783261814   Change is   -0.001646622211876
 Root      2 :     4.030191566814159   Change is   -0.000704774764990
 Root      3 :     4.184858458767773   Change is   -0.000893398867502
 Root      4 :     5.134964143850369   Change is   -0.001987521638719
 Root      5 :     5.604380530456846   Change is   -0.004598267024451
 Root      6 :     5.961555010464624   Change is   -0.000772368377033
 Iteration     5 Dimension    72 NMult    60 NNew     12
 CISAX will form    12 AO SS matrices at one time.
 NMat=    12 NSing=    12 JSym2X= 0.
 Root      1 not converged, maximum delta is    0.000724787882708
 Root      2 not converged, maximum delta is    0.000331109626614
 Root      3 not converged, maximum delta is    0.000557361945197
 Root      4 not converged, maximum delta is    0.000666259921221
 Root      5 not converged, maximum delta is    0.001021366497200
 Root      6 not converged, maximum delta is    0.001115166937257
 Excitation Energies [eV] at current iteration:
 Root      1 :     3.359891590469580   Change is   -0.000099192792234
 Root      2 :     4.030139297067800   Change is   -0.000052269746360
 Root      3 :     4.184805929895807   Change is   -0.000052528871966
 Root      4 :     5.134826628281035   Change is   -0.000137515569335
 Root      5 :     5.604013762779439   Change is   -0.000366767677408
 Root      6 :     5.961494627265917   Change is   -0.000060383198707
 Iteration     6 Dimension    84 NMult    72 NNew     12
 CISAX will form    12 AO SS matrices at one time.
 NMat=    12 NSing=    12 JSym2X= 0.
 Root      1 not converged, maximum delta is    0.000188507359302
 Root      2 not converged, maximum delta is    0.000115790652034
 Root      3 not converged, maximum delta is    0.000158852899626
 Root      4 not converged, maximum delta is    0.000382438356938
 Root      5 not converged, maximum delta is    0.000438005549676
 Root      6 not converged, maximum delta is    0.000184503132924
 Excitation Energies [eV] at current iteration:
 Root      1 :     3.359886063254722   Change is   -0.000005527214858
 Root      2 :     4.030136020068220   Change is   -0.000003276999580
 Root      3 :     4.184802831743941   Change is   -0.000003098151866
 Root      4 :     5.134815179161780   Change is   -0.000011449119254
 Root      5 :     5.603984784500075   Change is   -0.000028978279363
 Root      6 :     5.961489841586347   Change is   -0.000004785679570
 Iteration     7 Dimension    96 NMult    84 NNew     12
 CISAX will form    12 AO SS matrices at one time.
 NMat=    12 NSing=    12 JSym2X= 0.
 Root      1 not converged, maximum delta is    0.000017473179278
 Root      2 not converged, maximum delta is    0.000022658214069
 Root      3 not converged, maximum delta is    0.000033972441021
 Root      4 not converged, maximum delta is    0.000113298139644
 Root      5 not converged, maximum delta is    0.000150935209501
 Root      6 not converged, maximum delta is    0.000048129590777
 Excitation Energies [eV] at current iteration:
 Root      1 :     3.359885746267680   Change is   -0.000000316987042
 Root      2 :     4.030135846173653   Change is   -0.000000173894567
 Root      3 :     4.184802681084682   Change is   -0.000000150659259
 Root      4 :     5.134814100256547   Change is   -0.000001078905233
 Root      5 :     5.603982123241309   Change is   -0.000002661258767
 Root      6 :     5.961489470402613   Change is   -0.000000371183733
 Iteration     8 Dimension   108 NMult    96 NNew     12
 CISAX will form    12 AO SS matrices at one time.
 NMat=    12 NSing=    12 JSym2X= 0.
 Root      1 not converged, maximum delta is    0.000004272297892
 Root      2 not converged, maximum delta is    0.000003661299031
 Root      3 not converged, maximum delta is    0.000003616847736
 Root      4 not converged, maximum delta is    0.000021316167470
 Root      5 not converged, maximum delta is    0.000025336599173
 Root      6 not converged, maximum delta is    0.000011803921122
 Excitation Energies [eV] at current iteration:
 Root      1 :     3.359885733759528   Change is   -0.000000012508152
 Root      2 :     4.030135836219290   Change is   -0.000000009954363
 Root      3 :     4.184802672803255   Change is   -0.000000008281428
 Root      4 :     5.134814017226911   Change is   -0.000000083029636
 Root      5 :     5.603981936323819   Change is   -0.000000186917489
 Root      6 :     5.961489439297890   Change is   -0.000000031104723
 Iteration     9 Dimension   120 NMult   108 NNew     12
 CISAX will form    12 AO SS matrices at one time.
 NMat=    12 NSing=    12 JSym2X= 0.
 Root      1 has converged.
 Root      2 has converged.
 Root      3 has converged.
 Root      4 not converged, maximum delta is    0.000004340037666
 Root      5 not converged, maximum delta is    0.000006627114956
 Root      6 not converged, maximum delta is    0.000003906878485
 Excitation Energies [eV] at current iteration:
 Root      1 :     3.359885733272309   Change is   -0.000000000487219
 Root      2 :     4.030135835858834   Change is   -0.000000000360456
 Root      3 :     4.184802672534521   Change is   -0.000000000268734
 Root      4 :     5.134814013223749   Change is   -0.000000004003163
 Root      5 :     5.603981925089372   Change is   -0.000000011234448
 Root      6 :     5.961489437372426   Change is   -0.000000001925464
 Iteration    10 Dimension   126 NMult   120 NNew      6
 CISAX will form     6 AO SS matrices at one time.
 NMat=     6 NSing=     6 JSym2X= 0.
 Root      1 has converged.
 Root      2 has converged.
 Root      3 has converged.
 Root      4 not converged, maximum delta is    0.000001042482419
 Root      5 not converged, maximum delta is    0.000002004167337
 Root      6 not converged, maximum delta is    0.000001150211620
 Excitation Energies [eV] at current iteration:
 Root      1 :     3.359885733270205   Change is   -0.000000000002104
 Root      2 :     4.030135835855774   Change is   -0.000000000003060
 Root      3 :     4.184802672532793   Change is   -0.000000000001728
 Root      4 :     5.134814013011186   Change is   -0.000000000212563
 Root      5 :     5.603981924355825   Change is   -0.000000000733547
 Root      6 :     5.961489437243477   Change is   -0.000000000128948
 Iteration    11 Dimension   132 NMult   126 NNew      6
 CISAX will form     6 AO SS matrices at one time.
 NMat=     6 NSing=     6 JSym2X= 0.
 Root      1 has converged.
 Root      2 has converged.
 Root      3 has converged.
 Root      4 has converged.
 Root      5 has converged.
 Root      6 has converged.
 Excitation Energies [eV] at current iteration:
 Root      1 :     3.359885733270205   Change is    0.000000000000000
 Root      2 :     4.030135835855529   Change is   -0.000000000000245
 Root      3 :     4.184802672532596   Change is   -0.000000000000197
 Root      4 :     5.134814012998986   Change is   -0.000000000012200
 Root      5 :     5.603981924311978   Change is   -0.000000000043847
 Root      6 :     5.961489437233135   Change is   -0.000000000010342
 Convergence achieved on expansion vectors.
 PCM Corrected Linear-Response:
 The state of interest is root number   1
 Excitation energy =    3.3599 eV, Total energy =  -633.203525030    
 Recompute the excitation energies using the linear response reaction field.
 Convergence on wavefunction:    0.000001000000000
 Davidson Disk Diagonalization:  ConvIn= 1.00D-06 SkipCon=T Conv= 1.00D-06.
 Max sub-space:  2000 roots to seek:     6 dimension of matrix:        23104
 Iteration     1 Dimension     6 NMult     0 NNew      6
 CISAX will form     6 AO SS matrices at one time.
 NMat=     6 NSing=     6 JSym2X= 0.
 Excitation Energies [eV] at current iteration:
 Root      1 :     3.462330332433302
 Root      2 :     4.057302849429282
 Root      3 :     4.212049196541924
 Root      4 :     5.211156184181498
 Root      5 :     5.775678532792007
 Root      6 :     5.939981998976250
 Iteration     2 Dimension    18 NMult     6 NNew     12
 CISAX will form    12 AO SS matrices at one time.
 NMat=    12 NSing=    12 JSym2X= 0.
 Root      1 not converged, maximum delta is    0.018035280370276
 Root      2 not converged, maximum delta is    0.014742965089671
 Root      3 not converged, maximum delta is    0.007274080792808
 Root      4 not converged, maximum delta is    0.214332850709367
 Root      5 not converged, maximum delta is    0.252552125451740
 Root      6 not converged, maximum delta is    0.103740285867949
 Excitation Energies [eV] at current iteration:
 Root      1 :     3.245937698322969   Change is   -0.216392634110333
 Root      2 :     4.025697639140383   Change is   -0.031605210288898
 Root      3 :     4.179652397476085   Change is   -0.032396799065839
 Root      4 :     5.011471359323232   Change is   -0.199684824858266
 Root      5 :     5.478159990634122   Change is   -0.297518542157885
 Root      6 :     5.918694976963683   Change is   -0.021287022012567
 Iteration     3 Dimension    30 NMult    18 NNew     12
 CISAX will form    12 AO SS matrices at one time.
 NMat=    12 NSing=    12 JSym2X= 0.
 Root      1 not converged, maximum delta is    0.002600754973940
 Root      2 not converged, maximum delta is    0.000843048238589
 Root      3 not converged, maximum delta is    0.000985206147978
 Root      4 not converged, maximum delta is    0.011981533369921
 Root      5 not converged, maximum delta is    0.011265987846816
 Root      6 not converged, maximum delta is    0.009599830864896
 Excitation Energies [eV] at current iteration:
 Root      1 :     3.243117547844851   Change is   -0.002820150478118
 Root      2 :     4.025421461610536   Change is   -0.000276177529847
 Root      3 :     4.179349898267669   Change is   -0.000302499208415
 Root      4 :     5.003535175835903   Change is   -0.007936183487328
 Root      5 :     5.469887448092790   Change is   -0.008272542541332
 Root      6 :     5.917337454057921   Change is   -0.001357522905761
 Iteration     4 Dimension    42 NMult    30 NNew     12
 CISAX will form    12 AO SS matrices at one time.
 NMat=    12 NSing=    12 JSym2X= 0.
 Root      1 not converged, maximum delta is    0.001516329335527
 Root      2 not converged, maximum delta is    0.000170008411974
 Root      3 not converged, maximum delta is    0.000162383301606
 Root      4 not converged, maximum delta is    0.001876485166735
 Root      5 not converged, maximum delta is    0.002948269223924
 Root      6 not converged, maximum delta is    0.011044576623691
 Excitation Energies [eV] at current iteration:
 Root      1 :     3.242745882449869   Change is   -0.000371665394982
 Root      2 :     4.025407718824723   Change is   -0.000013742785814
 Root      3 :     4.179333084778730   Change is   -0.000016813488940
 Root      4 :     5.002425078465276   Change is   -0.001110097370627
 Root      5 :     5.468827035962670   Change is   -0.001060412130121
 Root      6 :     5.916837222344109   Change is   -0.000500231713811
 Iteration     5 Dimension    54 NMult    42 NNew     12
 CISAX will form    12 AO SS matrices at one time.
 NMat=    12 NSing=    12 JSym2X= 0.
 Root      1 not converged, maximum delta is    0.000544935193158
 Root      2 not converged, maximum delta is    0.000078287684056
 Root      3 not converged, maximum delta is    0.000083160070999
 Root      4 not converged, maximum delta is    0.000693055717359
 Root      5 not converged, maximum delta is    0.000642293667979
 Root      6 not converged, maximum delta is    0.004535140427429
 Excitation Energies [eV] at current iteration:
 Root      1 :     3.242719778131673   Change is   -0.000026104318196
 Root      2 :     4.025406836307234   Change is   -0.000000882517489
 Root      3 :     4.179331754854451   Change is   -0.000001329924278
 Root      4 :     5.002325000869222   Change is   -0.000100077596054
 Root      5 :     5.468712416776700   Change is   -0.000114619185970
 Root      6 :     5.916728934779663   Change is   -0.000108287564448
 Iteration     6 Dimension    66 NMult    54 NNew     12
 CISAX will form    12 AO SS matrices at one time.
 NMat=    12 NSing=    12 JSym2X= 0.
 Root      1 not converged, maximum delta is    0.000066485321259
 Root      2 not converged, maximum delta is    0.000025552633101
 Root      3 not converged, maximum delta is    0.000024860583981
 Root      4 not converged, maximum delta is    0.000260649679293
 Root      5 not converged, maximum delta is    0.000355528246751
 Root      6 not converged, maximum delta is    0.000806285862412
 Excitation Energies [eV] at current iteration:
 Root      1 :     3.242718061695278   Change is   -0.000001716436396
 Root      2 :     4.025406742089541   Change is   -0.000000094217692
 Root      3 :     4.179331638410620   Change is   -0.000000116443832
 Root      4 :     5.002315274972445   Change is   -0.000009725896777
 Root      5 :     5.468698947930888   Change is   -0.000013468845812
 Root      6 :     5.916716534571815   Change is   -0.000012400207847
 Iteration     7 Dimension    78 NMult    66 NNew     12
 CISAX will form    12 AO SS matrices at one time.
 NMat=    12 NSing=    12 JSym2X= 0.
 Root      1 not converged, maximum delta is    0.000009275653069
 Root      2 not converged, maximum delta is    0.000004773908837
 Root      3 not converged, maximum delta is    0.000006368635284
 Root      4 not converged, maximum delta is    0.000092357833569
 Root      5 not converged, maximum delta is    0.000138049213004
 Root      6 not converged, maximum delta is    0.000104340916588
 Excitation Energies [eV] at current iteration:
 Root      1 :     3.242718000252682   Change is   -0.000000061442596
 Root      2 :     4.025406737755937   Change is   -0.000000004333604
 Root      3 :     4.179331631564510   Change is   -0.000000006846109
 Root      4 :     5.002314285173723   Change is   -0.000000989798722
 Root      5 :     5.468697429091864   Change is   -0.000001518839024
 Root      6 :     5.916715185891503   Change is   -0.000001348680312
 Iteration     8 Dimension    90 NMult    78 NNew     12
 CISAX will form    12 AO SS matrices at one time.
 NMat=    12 NSing=    12 JSym2X= 0.
 Root      1 not converged, maximum delta is    0.000002129080842
 Root      2 not converged, maximum delta is    0.000001384299491
 Root      3 not converged, maximum delta is    0.000001068548908
 Root      4 not converged, maximum delta is    0.000020425220538
 Root      5 not converged, maximum delta is    0.000037429184190
 Root      6 not converged, maximum delta is    0.000042102191974
 Excitation Energies [eV] at current iteration:
 Root      1 :     3.242717997770879   Change is   -0.000000002481803
 Root      2 :     4.025406737567952   Change is   -0.000000000187985
 Root      3 :     4.179331631155059   Change is   -0.000000000409451
 Root      4 :     5.002314215271979   Change is   -0.000000069901744
 Root      5 :     5.468697282333406   Change is   -0.000000146758458
 Root      6 :     5.916715036905096   Change is   -0.000000148986406
 Iteration     9 Dimension   102 NMult    90 NNew     12
 CISAX will form    12 AO SS matrices at one time.
 NMat=    12 NSing=    12 JSym2X= 0.
 Root      1 has converged.
 Root      2 has converged.
 Root      3 has converged.
 Root      4 not converged, maximum delta is    0.000004987520544
 Root      5 not converged, maximum delta is    0.000010486752280
 Root      6 not converged, maximum delta is    0.000018881788906
 Excitation Energies [eV] at current iteration:
 Root      1 :     3.242717997673580   Change is   -0.000000000097299
 Root      2 :     4.025406737558843   Change is   -0.000000000009109
 Root      3 :     4.179331631131769   Change is   -0.000000000023289
 Root      4 :     5.002314210795467   Change is   -0.000000004476511
 Root      5 :     5.468697270591377   Change is   -0.000000011742029
 Root      6 :     5.916715020152184   Change is   -0.000000016752912
 Iteration    10 Dimension   108 NMult   102 NNew      6
 CISAX will form     6 AO SS matrices at one time.
 NMat=     6 NSing=     6 JSym2X= 0.
 Root      1 has converged.
 Root      2 has converged.
 Root      3 has converged.
 Root      4 not converged, maximum delta is    0.000001519981137
 Root      5 not converged, maximum delta is    0.000003467488278
 Root      6 not converged, maximum delta is    0.000006492471004
 Excitation Energies [eV] at current iteration:
 Root      1 :     3.242717997672464   Change is   -0.000000000001116
 Root      2 :     4.025406737558557   Change is   -0.000000000000286
 Root      3 :     4.179331631131416   Change is   -0.000000000000354
 Root      4 :     5.002314210534942   Change is   -0.000000000260527
 Root      5 :     5.468697269707262   Change is   -0.000000000884115
 Root      6 :     5.916715018527893   Change is   -0.000000001624291
 Iteration    11 Dimension   114 NMult   108 NNew      6
 CISAX will form     6 AO SS matrices at one time.
 NMat=     6 NSing=     6 JSym2X= 0.
 Root      1 has converged.
 Root      2 has converged.
 Root      3 has converged.
 Root      4 has converged.
 Root      5 has converged.
 Root      6 not converged, maximum delta is    0.000001636523980
 Excitation Energies [eV] at current iteration:
 Root      1 :     3.242717997672338   Change is   -0.000000000000127
 Root      2 :     4.025406737558536   Change is   -0.000000000000020
 Root      3 :     4.179331631131259   Change is   -0.000000000000157
 Root      4 :     5.002314210519296   Change is   -0.000000000015645
 Root      5 :     5.468697269641286   Change is   -0.000000000065976
 Root      6 :     5.916715018374571   Change is   -0.000000000153322
 Iteration    12 Dimension   116 NMult   114 NNew      2
 CISAX will form     2 AO SS matrices at one time.
 NMat=     2 NSing=     2 JSym2X= 0.
 Root      1 has converged.
 Root      2 has converged.
 Root      3 has converged.
 Root      4 has converged.
 Root      5 has converged.
 Root      6 has converged.
 Excitation Energies [eV] at current iteration:
 Root      1 :     3.242717997672313   Change is   -0.000000000000025
 Root      2 :     4.025406737558475   Change is   -0.000000000000061
 Root      3 :     4.179331631131259   Change is    0.000000000000000
 Root      4 :     5.002314210519280   Change is   -0.000000000000017
 Root      5 :     5.468697269641136   Change is   -0.000000000000150
 Root      6 :     5.916715018360677   Change is   -0.000000000013894
 Convergence achieved on expansion vectors.
 ***********************************************************************
 Excited states from <AA,BB:AA,BB> singles matrix:
 ***********************************************************************
 
 1PDM for each excited state written to RWF  633
 Ground to excited state transition densities written to RWF  633
 Ground to excited state transition electric dipole moments (Au):
       state          X           Y           Z        Dip. S.      Osc.
         1        -1.6206      0.1918      0.0506      2.6657      0.2118
         2        -0.0950     -0.0232      0.0414      0.0113      0.0011
         3        -0.0307      0.1352     -0.0312      0.0202      0.0021
         4        -0.1961     -1.7477      0.1033      3.1034      0.3803
         5        -0.0610     -1.5039      0.0169      2.2657      0.3036
         6         0.0267      0.2349      0.0595      0.0594      0.0086
 Ground to excited state transition velocity dipole moments (Au):
       state          X           Y           Z        Dip. S.      Osc.
         1         0.1853     -0.0183     -0.0067      0.0347      0.1942
         2         0.0134      0.0038     -0.0032      0.0002      0.0009
         3         0.0045     -0.0190      0.0013      0.0004      0.0017
         4         0.0392      0.3077     -0.0149      0.0964      0.3497
         5         0.0127      0.2966     -0.0044      0.0881      0.2923
         6        -0.0066     -0.0480     -0.0326      0.0034      0.0104
 Ground to excited state transition magnetic dipole moments (Au):
       state          X           Y           Z
         1        -0.0563      0.0316     -1.4582
         2         0.8018     -0.1238     -0.2507
         3         0.1783     -0.9900     -0.2012
         4         0.0487     -0.0940      0.0758
         5         0.1689     -0.1050      0.2877
         6        -0.0010     -0.0123      0.0216
 Ground to excited state transition velocity quadrupole moments (Au):
       state          XX          YY          ZZ          XY          XZ          YZ
         1        -0.1707      0.0968      0.0037     -0.5233      0.0490      0.0154
         2         0.0110     -0.0073     -0.0030     -0.0389      0.0130      0.0834
         3        -0.0006     -0.0039      0.0246     -0.0585      0.0647      0.0097
         4        -1.3036      0.2962      0.0016      0.0804      0.0848     -0.0455
         5        -0.4954      0.2748      0.0456      0.2308      0.0672      0.0258
         6        -0.2010     -0.1897      0.1651      0.0153      0.0323      0.0713
 <0|del|b> * <b|rxdel|0> + <0|del|b> * <b|delr+rdel|0>
 Rotatory Strengths (R) in cgs (10**-40 erg-esu-cm/Gauss)
       state          XX          YY          ZZ    R(velocity)    E-M Angle
         1        40.0886     -4.0346    -43.7496     -2.5652       90.27
         2         0.9755     29.9948     22.0288     17.6664       24.03
         3        45.3256      1.5234     42.2213     29.6901       15.53
         4      -110.2755      0.3720      1.6463    -36.0857      134.09
         5       -93.9092      3.9180    -16.5222    -35.5044      106.95
         6         1.5179     -1.0933     -0.7822     -0.1192       94.34
 1/2[<0|r|b>*<b|rxdel|0> + (<0|rxdel|b>*<b|r|0>)*]
 Rotatory Strengths (R) in cgs (10**-40 erg-esu-cm/Gauss)
       state          XX          YY          ZZ     R(length)
         1       -64.5068     -4.2819     52.1951     -5.5312
         2        53.8455     -2.0343      7.3460     19.7191
         3         3.8654     94.6519     -4.4407     31.3589
         4         6.7580   -116.1759     -5.5397    -38.3192
         5         7.2876   -111.7211     -3.4446    -35.9593
         6         0.0181      2.0382     -0.9103      0.3820
  1/2[<0|del|b>*<b|r|0> + (<0|r|b>*<b|del|0>)*] (Au)
       state          X           Y           Z        Dip. S.   Osc.(frdel)
         1        -0.3003     -0.0035     -0.0003      0.3041      0.2027
         2        -0.0013     -0.0001     -0.0001      0.0015      0.0010
         3        -0.0001     -0.0026     -0.0000      0.0027      0.0018
         4        -0.0077     -0.5377     -0.0015      0.5470      0.3646
         5        -0.0008     -0.4460     -0.0001      0.4468      0.2979
         6        -0.0002     -0.0113     -0.0019      0.0134      0.0089

 Excitation energies and oscillator strengths:
 
 Excited State   1:      Singlet-A      3.2427 eV  382.35 nm  f=0.2118  <S**2>=0.000
      52 -> 53         0.70015
 This state for optimization and/or second-order correction.
 Total Energy, E(TD-HF/TD-DFT) =  -633.207830865    
 Copying the excited state density for this state as the 1-particle RhoCI density.
 
 Excited State   2:      Singlet-A      4.0254 eV  308.00 nm  f=0.0011  <S**2>=0.000
      50 -> 54         0.18487
      51 -> 53         0.57345
      51 -> 54         0.32415
 
 Excited State   3:      Singlet-A      4.1793 eV  296.66 nm  f=0.0021  <S**2>=0.000
      49 -> 53         0.21705
      49 -> 54        -0.14082
      50 -> 53         0.54113
      50 -> 54        -0.25654
      50 -> 58         0.11374
      51 -> 54         0.20576
 
 Excited State   4:      Singlet-A      5.0023 eV  247.85 nm  f=0.3803  <S**2>=0.000
      52 -> 54         0.69437
 
 Excited State   5:      Singlet-A      5.4687 eV  226.72 nm  f=0.3036  <S**2>=0.000
      49 -> 53         0.62832
      50 -> 53        -0.25541
      51 -> 53         0.11899
 
 Excited State   6:      Singlet-A      5.9167 eV  209.55 nm  f=0.0086  <S**2>=0.000
      52 -> 55         0.65522
      52 -> 56         0.15892
 SavETr:  write IOETrn=   770 NScale= 10 NData=  16 NLR=1 NState=    6 LETran=     118.
 The selected state is a singlet.
 CISGrd: IGrad=1 NXY=2 DFT=T
 CISAX will form     1 AO SS matrices at one time.
 NMat=     1 NSing=     1 JSym2X= 0.
 Leave Link  914 at Fri Jan 23 20:21:50 2026, MaxMem=  2147483648 cpu:            7726.3 elap:             484.4
 (Enter /data/home/wyx/g16/l1002.exe)
 Minotr:  Closed shell wavefunction.
          Computing CIS/TDA/TD derivatives.
          Using Z-Vector for PSCF gradient.
          Skipping F1 and S1 gradient terms here.
 NEqPCM:  Using equilibrium solvation (IEInf=0, Eps=   7.4257, EpsInf=   1.9740)
          Frozen-core window.
          Direct CPHF calculation.
          Differentiating once with respect to electric field.
                with respect to dipole field.
          Electric field/nuclear overlap derivatives assumed to be zero.
          Requested convergence is 1.0D-10 RMS, and 1.0D-09 maximum.
          NewPWx=F KeepS1=T KeepF1=T KeepIn=T MapXYZ=F SortEE=F KeepMc=T.
 Two-electron integral symmetry used by symmetrizing perturbed Fock matrices.
          MDV=    2147483648 using IRadAn=       5.
          Solving linear equations separately, MaxMat=     384.
          There are     1 degrees of freedom in the 1st order CPHF.  IDoFFX=0 NUNeed=     1.
 FoFJK:  IHMeth= 1 ICntrl=       0 DoSepK=T KAlg= 0 I1Cent=           0 FoldK=F
 IRaf=         1 NMat=       1 IRICut=       1 DoRegI=T DoRafI=F ISym2E=-1 IDoP0=0 IntGTp=1.
 FoFCou: FMM=F IPFlag=           0 FMFlag=      100000 FMFlg1=           0
         NFxFlg=           0 DoJE=T BraDBF=F KetDBF=F FulRan=T
         wScrn=  0.000000 ICntrl=       500 IOpCl=  0 I1Cent=           0 NGrid=           0
         NMat0=    1 NMatS0=      1 NMatT0=    0 NMatD0=    1 NMtDS0=    0 NMtDT0=    0
 Petite list used in FoFCou.
 LinEq1:  Iter=  0 NonCon=     1 RMS=3.56D-03 Max=1.58D-01 NDo=     1
 AX will form     1 AO Fock derivatives at one time.
 LinEq1:  Iter=  1 NonCon=     1 RMS=1.45D-03 Max=7.74D-02 NDo=     1
 LinEq1:  Iter=  2 NonCon=     1 RMS=7.07D-04 Max=3.23D-02 NDo=     1
 LinEq1:  Iter=  3 NonCon=     1 RMS=3.99D-04 Max=1.81D-02 NDo=     1
 LinEq1:  Iter=  4 NonCon=     1 RMS=1.78D-04 Max=7.96D-03 NDo=     1
 LinEq1:  Iter=  5 NonCon=     1 RMS=8.19D-05 Max=3.33D-03 NDo=     1
 LinEq1:  Iter=  6 NonCon=     1 RMS=4.58D-05 Max=2.28D-03 NDo=     1
 LinEq1:  Iter=  7 NonCon=     1 RMS=2.45D-05 Max=1.30D-03 NDo=     1
 LinEq1:  Iter=  8 NonCon=     1 RMS=1.21D-05 Max=4.18D-04 NDo=     1
 LinEq1:  Iter=  9 NonCon=     1 RMS=6.03D-06 Max=1.88D-04 NDo=     1
 LinEq1:  Iter= 10 NonCon=     1 RMS=3.38D-06 Max=9.07D-05 NDo=     1
 LinEq1:  Iter= 11 NonCon=     1 RMS=2.02D-06 Max=5.70D-05 NDo=     1
 LinEq1:  Iter= 12 NonCon=     1 RMS=8.46D-07 Max=1.44D-05 NDo=     1
 LinEq1:  Iter= 13 NonCon=     1 RMS=3.19D-07 Max=7.65D-06 NDo=     1
 LinEq1:  Iter= 14 NonCon=     1 RMS=1.40D-07 Max=4.47D-06 NDo=     1
 LinEq1:  Iter= 15 NonCon=     1 RMS=8.06D-08 Max=2.81D-06 NDo=     1
 LinEq1:  Iter= 16 NonCon=     1 RMS=2.91D-08 Max=1.12D-06 NDo=     1
 LinEq1:  Iter= 17 NonCon=     1 RMS=9.98D-09 Max=3.68D-07 NDo=     1
 LinEq1:  Iter= 18 NonCon=     1 RMS=4.66D-09 Max=8.36D-08 NDo=     1
 LinEq1:  Iter= 19 NonCon=     1 RMS=1.91D-09 Max=4.99D-08 NDo=     1
 LinEq1:  Iter= 20 NonCon=     1 RMS=5.57D-10 Max=8.31D-09 NDo=     1
 LinEq1:  Iter= 21 NonCon=     1 RMS=2.47D-10 Max=5.11D-09 NDo=     1
 LinEq1:  Iter= 22 NonCon=     1 RMS=8.78D-11 Max=2.09D-09 NDo=     1
 LinEq1:  Iter= 23 NonCon=     0 RMS=2.07D-11 Max=5.40D-10 NDo=     1
 Linear equations converged to 1.000D-10 1.000D-09 after    23 iterations.
 PCM Corrected Linear-Response - Equilibrium solvation:
 Corrected transition energy               =    3.3406          eV
 Total energy after correction             = -633.204234598     a.u.
 NEqPCM:  Using non-equilibrium solvation (IEInf=1, Eps=   7.4257, EpsInf=   1.9740)
 Inv3:  Mode=1 IEnd=    13318347.
 Iteration    1 A*A^-1 deviation from unit magnitude is 3.44D-15 for   1788.
 Iteration    1 A*A^-1 deviation from orthogonality  is 2.22D-15 for   1348    967.
 Iteration    1 A^-1*A deviation from unit magnitude is 3.33D-15 for   1967.
 Iteration    1 A^-1*A deviation from orthogonality  is 1.80D-15 for   1357     35.
 NEqSol: Computing the dynamic-inertial partition of the PCM polarization charges.
 End of Minotr F.D. properties file   721 does not exist.
 End of Minotr F.D. properties file   722 does not exist.
 End of Minotr F.D. properties file   788 does not exist.
 Leave Link 1002 at Fri Jan 23 20:24:06 2026, MaxMem=  2147483648 cpu:            1898.1 elap:             135.4
 (Enter /data/home/wyx/g16/l601.exe)
 Copying SCF densities to generalized density rwf, IOpCl= 0 IROHF=0.

 **********************************************************************

            Population analysis using the CI density.

 **********************************************************************

 Orbital symmetries:
       Occupied  (A) (A) (A) (A) (A) (A) (A) (A) (A) (A) (A) (A)
                 (A) (A) (A) (A) (A) (A) (A) (A) (A) (A) (A) (A)
                 (A) (A) (A) (A) (A) (A) (A) (A) (A) (A) (A) (A)
                 (A) (A) (A) (A) (A) (A) (A) (A) (A) (A) (A) (A)
                 (A) (A) (A) (A)
       Virtual   (A) (A) (A) (A) (A) (A) (A) (A) (A) (A) (A) (A)
                 (A) (A) (A) (A) (A) (A) (A) (A) (A) (A) (A) (A)
                 (A) (A) (A) (A) (A) (A) (A) (A) (A) (A) (A) (A)
                 (A) (A) (A) (A) (A) (A) (A) (A) (A) (A) (A) (A)
                 (A) (A) (A) (A) (A) (A) (A) (A) (A) (A) (A) (A)
                 (A) (A) (A) (A) (A) (A) (A) (A) (A) (A) (A) (A)
                 (A) (A) (A) (A) (A) (A) (A) (A) (A) (A) (A) (A)
                 (A) (A) (A) (A) (A) (A) (A) (A) (A) (A) (A) (A)
                 (A) (A) (A) (A) (A) (A) (A) (A) (A) (A) (A) (A)
                 (A) (A) (A) (A) (A) (A) (A) (A) (A) (A) (A) (A)
                 (A) (A) (A) (A) (A) (A) (A) (A) (A) (A) (A) (A)
                 (A) (A) (A) (A) (A) (A) (A) (A) (A) (A) (A) (A)
                 (A) (A) (A) (A) (A) (A) (A) (A) (A) (A) (A) (A)
                 (A) (A) (A) (A) (A) (A) (A) (A) (A) (A) (A) (A)
                 (A) (A) (A) (A) (A) (A) (A) (A) (A) (A) (A) (A)
                 (A) (A) (A) (A) (A) (A) (A) (A) (A) (A) (A) (A)
                 (A) (A) (A) (A) (A) (A) (A) (A) (A) (A) (A) (A)
                 (A) (A) (A) (A) (A) (A) (A) (A) (A) (A) (A) (A)
                 (A) (A) (A) (A) (A) (A) (A) (A) (A) (A) (A) (A)
                 (A) (A) (A) (A) (A) (A) (A) (A) (A) (A) (A) (A)
                 (A) (A) (A) (A) (A) (A) (A) (A) (A) (A) (A) (A)
                 (A) (A) (A) (A) (A) (A) (A) (A) (A) (A) (A) (A)
                 (A) (A) (A) (A) (A) (A) (A) (A) (A) (A) (A) (A)
                 (A) (A) (A) (A) (A) (A) (A) (A) (A) (A) (A) (A)
                 (A) (A) (A) (A) (A) (A) (A) (A) (A) (A) (A) (A)
                 (A) (A) (A) (A)
 The electronic state is 1-A.
 Alpha  occ. eigenvalues --  -19.17831 -19.17127 -14.44381 -10.33386 -10.32870
 Alpha  occ. eigenvalues --  -10.32345 -10.31738 -10.26026 -10.25184 -10.24863
 Alpha  occ. eigenvalues --  -10.24619 -10.24540 -10.24244 -10.23584  -1.11777
 Alpha  occ. eigenvalues --   -1.11303  -1.07957  -0.91370  -0.90391  -0.83918
 Alpha  occ. eigenvalues --   -0.82631  -0.81673  -0.78562  -0.73969  -0.71615
 Alpha  occ. eigenvalues --   -0.68646  -0.61624  -0.58286  -0.56896  -0.55194
 Alpha  occ. eigenvalues --   -0.54631  -0.54013  -0.52595  -0.51887  -0.50839
 Alpha  occ. eigenvalues --   -0.49875  -0.49543  -0.49231  -0.48649  -0.48124
 Alpha  occ. eigenvalues --   -0.47009  -0.45281  -0.45182  -0.43674  -0.43145
 Alpha  occ. eigenvalues --   -0.42310  -0.42168  -0.41800  -0.32738  -0.32190
 Alpha  occ. eigenvalues --   -0.31170  -0.25710
 Alpha virt. eigenvalues --   -0.02656   0.02567   0.06274   0.08057   0.08464
 Alpha virt. eigenvalues --    0.09935   0.10732   0.11824   0.12581   0.13510
 Alpha virt. eigenvalues --    0.14027   0.14856   0.15617   0.16220   0.16924
 Alpha virt. eigenvalues --    0.17548   0.17845   0.18032   0.18174   0.19207
 Alpha virt. eigenvalues --    0.19922   0.22100   0.22826   0.23441   0.23773
 Alpha virt. eigenvalues --    0.23933   0.24823   0.25625   0.26110   0.26563
 Alpha virt. eigenvalues --    0.27019   0.27672   0.28862   0.29024   0.30123
 Alpha virt. eigenvalues --    0.31715   0.31963   0.32519   0.33549   0.34431
 Alpha virt. eigenvalues --    0.35091   0.36004   0.36686   0.38176   0.38602
 Alpha virt. eigenvalues --    0.39878   0.41003   0.41545   0.42052   0.42613
 Alpha virt. eigenvalues --    0.44025   0.44530   0.45534   0.46154   0.46319
 Alpha virt. eigenvalues --    0.47301   0.47727   0.48123   0.48240   0.49106
 Alpha virt. eigenvalues --    0.49490   0.50558   0.50939   0.51425   0.51661
 Alpha virt. eigenvalues --    0.52775   0.53107   0.53426   0.54032   0.54285
 Alpha virt. eigenvalues --    0.54526   0.55728   0.56147   0.56622   0.58345
 Alpha virt. eigenvalues --    0.58673   0.59266   0.60972   0.61082   0.62829
 Alpha virt. eigenvalues --    0.63534   0.65703   0.66303   0.66493   0.67937
 Alpha virt. eigenvalues --    0.68619   0.70030   0.71174   0.72059   0.72694
 Alpha virt. eigenvalues --    0.73225   0.74068   0.74770   0.75915   0.77850
 Alpha virt. eigenvalues --    0.78588   0.79873   0.82569   0.85277   0.85989
 Alpha virt. eigenvalues --    0.89985   0.93989   1.00700   1.02314   1.23552
 Alpha virt. eigenvalues --    1.25232   1.27114   1.27953   1.29458   1.31300
 Alpha virt. eigenvalues --    1.32646   1.32890   1.34066   1.34882   1.36104
 Alpha virt. eigenvalues --    1.36500   1.37461   1.38363   1.39071   1.39910
 Alpha virt. eigenvalues --    1.39990   1.40501   1.40845   1.41450   1.41786
 Alpha virt. eigenvalues --    1.43437   1.44030   1.44315   1.45142   1.47253
 Alpha virt. eigenvalues --    1.48069   1.49479   1.49642   1.50358   1.51139
 Alpha virt. eigenvalues --    1.51634   1.52476   1.53108   1.54779   1.57939
 Alpha virt. eigenvalues --    1.58517   1.60678   1.60709   1.61381   1.62422
 Alpha virt. eigenvalues --    1.62734   1.63374   1.64189   1.64749   1.65814
 Alpha virt. eigenvalues --    1.66845   1.67225   1.67679   1.68300   1.68410
 Alpha virt. eigenvalues --    1.68878   1.69889   1.70283   1.71622   1.72346
 Alpha virt. eigenvalues --    1.73736   1.75170   1.76122   1.76592   1.78753
 Alpha virt. eigenvalues --    1.80633   1.82971   1.84209   1.86082   1.86560
 Alpha virt. eigenvalues --    1.86831   1.87714   1.88561   1.88958   1.90638
 Alpha virt. eigenvalues --    1.91233   1.94594   1.95130   1.98730   1.99783
 Alpha virt. eigenvalues --    2.01193   2.03894   2.05026   2.06712   2.09584
 Alpha virt. eigenvalues --    2.11019   2.12600   2.14978   2.17248   2.19645
 Alpha virt. eigenvalues --    2.20206   2.21382   2.21936   2.22977   2.26146
 Alpha virt. eigenvalues --    2.27209   2.27589   2.29323   2.31143   2.32081
 Alpha virt. eigenvalues --    2.33641   2.34451   2.36747   2.37643   2.38385
 Alpha virt. eigenvalues --    2.39549   2.40286   2.41629   2.43337   2.44947
 Alpha virt. eigenvalues --    2.46073   2.47929   2.50105   2.50703   2.51673
 Alpha virt. eigenvalues --    2.52225   2.53948   2.54977   2.56780   2.58181
 Alpha virt. eigenvalues --    2.59011   2.60531   2.61491   2.62493   2.63016
 Alpha virt. eigenvalues --    2.64570   2.65851   2.66918   2.67409   2.68830
 Alpha virt. eigenvalues --    2.71766   2.72004   2.73073   2.73965   2.75402
 Alpha virt. eigenvalues --    2.75909   2.76651   2.77412   2.78043   2.79417
 Alpha virt. eigenvalues --    2.80711   2.81825   2.83366   2.83882   2.84478
 Alpha virt. eigenvalues --    2.85600   2.86424   2.88285   2.89954   2.91894
 Alpha virt. eigenvalues --    2.97708   2.99853   3.00731   3.05162   3.10710
 Alpha virt. eigenvalues --    3.12430   3.15627   3.17112   3.17940   3.21050
 Alpha virt. eigenvalues --    3.21507   3.23064   3.24648   3.26197   3.27193
 Alpha virt. eigenvalues --    3.27668   3.29930   3.33386   3.34614   3.36687
 Alpha virt. eigenvalues --    3.37438   3.38858   3.39876   3.40304   3.41914
 Alpha virt. eigenvalues --    3.42474   3.44700   3.45489   3.47325   3.48173
 Alpha virt. eigenvalues --    3.49359   3.49738   3.55282   3.58519   3.60011
 Alpha virt. eigenvalues --    3.60706   3.90560   4.00151   4.34064   4.36539
 Alpha virt. eigenvalues --   21.65273  21.80185  22.08413  22.10947  22.11871
 Alpha virt. eigenvalues --   22.15015  22.15353  22.18803  22.20392  22.24789
 Alpha virt. eigenvalues --   22.29357  31.92432  43.63454  43.66125
          Condensed to atoms (all electrons):
               1          2          3          4          5          6
     1  O    7.991991  -0.000000  -0.000269   0.000020   0.023151   0.021890
     2  O   -0.000000   8.002166   0.000242   0.000033  -0.208081   0.000977
     3  N   -0.000269   0.000242   6.199742   0.366650  -0.089062   0.349945
     4  H    0.000020   0.000033   0.366650   0.402007   0.016665  -0.043739
     5  C    0.023151  -0.208081  -0.089062   0.016665   7.257970  -0.000645
     6  C    0.021890   0.000977   0.349945  -0.043739  -0.000645   6.019816
     7  C   -0.000580  -0.030476   0.420504  -0.038020   0.160734  -0.214862
     8  C   -0.000324   0.692009   0.004302  -0.000510  -0.301069   0.031952
     9  C   -0.020697   0.021348   0.001461  -0.001068  -0.589541  -0.154972
    10  H    0.013975  -0.000179  -0.001332   0.000023  -0.088592   0.019136
    11  H    0.003526   0.000028   0.001224   0.000049  -0.017807  -0.010221
    12  C   -0.248592  -0.002108  -0.048928   0.014699   0.045987  -0.361200
    13  C    0.697506  -0.000016   0.000078   0.000663   0.090538   0.130952
    14  C   -0.000006  -0.009595  -0.039505  -0.010287  -0.085997   0.013818
    15  H   -0.000000   0.004478   0.004096   0.001956   0.021992   0.006481
    16  H   -0.000000  -0.000943   0.000174   0.000775   0.001513  -0.000753
    17  H    0.000000   0.000386  -0.002419   0.000933  -0.009515  -0.001166
    18  C    0.000158  -0.105850  -0.000583   0.000022  -0.288164  -0.000535
    19  H    0.000001   0.009822   0.000004  -0.000001   0.026650   0.000021
    20  H    0.000140   0.003834   0.000105   0.000001   0.044867  -0.001124
    21  H   -0.000130   0.002274   0.000008  -0.000001   0.004031   0.000232
    22  C   -0.110793   0.000000   0.000278   0.000130   0.005193  -0.010971
    23  H    0.002095   0.000000   0.000041  -0.000014  -0.000092   0.015635
    24  H    0.005096  -0.000000  -0.000067  -0.000059  -0.000791  -0.031831
    25  H    0.009566  -0.000000   0.000011  -0.000003  -0.000147  -0.001836
    26  C    0.000758   0.000005  -0.036553  -0.007213  -0.001216   0.175415
    27  H   -0.000066   0.000000  -0.002687   0.000531   0.000599  -0.048949
    28  H   -0.000391  -0.000000   0.002049   0.000773  -0.000270  -0.062064
    29  H    0.000017   0.000000   0.002397   0.001655  -0.000562  -0.057566
               7          8          9         10         11         12
     1  O   -0.000580  -0.000324  -0.020697   0.013975   0.003526  -0.248592
     2  O   -0.030476   0.692009   0.021348  -0.000179   0.000028  -0.002108
     3  N    0.420504   0.004302   0.001461  -0.001332   0.001224  -0.048928
     4  H   -0.038020  -0.000510  -0.001068   0.000023   0.000049   0.014699
     5  C    0.160734  -0.301069  -0.589541  -0.088592  -0.017807   0.045987
     6  C   -0.214862   0.031952  -0.154972   0.019136  -0.010221  -0.361200
     7  C    5.848241  -0.253756  -0.204202   0.014496  -0.006285   0.038214
     8  C   -0.253756   5.469530   0.162443  -0.007011   0.000142  -0.041463
     9  C   -0.204202   0.162443   6.610708   0.504899   0.342143  -0.087861
    10  H    0.014496  -0.007011   0.504899   0.461176  -0.024440  -0.105903
    11  H   -0.006285   0.000142   0.342143  -0.024440   0.488439   0.014341
    12  C    0.038214  -0.041463  -0.087861  -0.105903   0.014341   7.590729
    13  C    0.013369  -0.007463  -0.267284   0.006782  -0.001689  -0.431464
    14  C    0.276513  -0.033464   0.009540   0.000310  -0.000668  -0.002937
    15  H   -0.082597   0.006634   0.000165   0.000000   0.000035  -0.001566
    16  H   -0.035889  -0.006572  -0.000795  -0.000053   0.000150   0.000253
    17  H   -0.034849  -0.000569   0.001305   0.000061  -0.000054   0.000058
    18  C    0.007323   0.305558  -0.005440   0.004856  -0.008543  -0.007696
    19  H    0.001556  -0.051704  -0.002575   0.000654  -0.000089  -0.000574
    20  H    0.002860  -0.067981  -0.007146  -0.004543  -0.000385   0.007487
    21  H   -0.000884  -0.035429  -0.009624  -0.002039   0.001067  -0.000452
    22  C   -0.000287  -0.000033   0.000075   0.000976   0.001618  -0.286610
    23  H   -0.000025   0.000004  -0.003877  -0.000105   0.000072  -0.012842
    24  H    0.000057  -0.000006   0.003609  -0.000108  -0.000140   0.073244
    25  H    0.000027   0.000004   0.001794  -0.000126  -0.000041   0.024278
    26  C    0.005795   0.000457   0.024504  -0.000015  -0.000523  -0.075161
    27  H   -0.000081  -0.000026  -0.002051   0.000021  -0.000013  -0.016025
    28  H   -0.000425   0.000000   0.001891   0.000007  -0.000015   0.000749
    29  H    0.003808   0.000008  -0.000690  -0.000000   0.000046   0.023549
              13         14         15         16         17         18
     1  O    0.697506  -0.000006  -0.000000  -0.000000   0.000000   0.000158
     2  O   -0.000016  -0.009595   0.004478  -0.000943   0.000386  -0.105850
     3  N    0.000078  -0.039505   0.004096   0.000174  -0.002419  -0.000583
     4  H    0.000663  -0.010287   0.001956   0.000775   0.000933   0.000022
     5  C    0.090538  -0.085997   0.021992   0.001513  -0.009515  -0.288164
     6  C    0.130952   0.013818   0.006481  -0.000753  -0.001166  -0.000535
     7  C    0.013369   0.276513  -0.082597  -0.035889  -0.034849   0.007323
     8  C   -0.007463  -0.033464   0.006634  -0.006572  -0.000569   0.305558
     9  C   -0.267284   0.009540   0.000165  -0.000795   0.001305  -0.005440
    10  H    0.006782   0.000310   0.000000  -0.000053   0.000061   0.004856
    11  H   -0.001689  -0.000668   0.000035   0.000150  -0.000054  -0.008543
    12  C   -0.431464  -0.002937  -0.001566   0.000253   0.000058  -0.007696
    13  C    5.551874  -0.000074  -0.000028   0.000006  -0.000038   0.000820
    14  C   -0.000074   5.037042   0.383623   0.421507   0.419649   0.001785
    15  H   -0.000028   0.383623   0.589355  -0.027736  -0.026928   0.000325
    16  H    0.000006   0.421507  -0.027736   0.518742  -0.030760  -0.000045
    17  H   -0.000038   0.419649  -0.026928  -0.030760   0.524438  -0.000153
    18  C    0.000820   0.001785   0.000325  -0.000045  -0.000153   5.400510
    19  H   -0.000030   0.000054  -0.000007  -0.000017   0.000006   0.384593
    20  H    0.000589   0.000101  -0.000020  -0.000059   0.000009   0.374770
    21  H    0.000127  -0.000373  -0.000006   0.000049  -0.000052   0.398036
    22  C    0.296132  -0.000013   0.000002  -0.000000   0.000000   0.000013
    23  H   -0.029284  -0.000001   0.000000   0.000000  -0.000000  -0.000003
    24  H   -0.098227   0.000000   0.000000   0.000000   0.000000   0.000002
    25  H   -0.038180   0.000001   0.000000  -0.000000   0.000000   0.000002
    26  C   -0.048858   0.000648   0.000299   0.000024  -0.000110   0.000031
    27  H    0.005936  -0.000300   0.000005   0.000010  -0.000036  -0.000002
    28  H   -0.002252   0.000088  -0.000009  -0.000004   0.000005   0.000001
    29  H   -0.000405   0.000054   0.000055  -0.000010   0.000010   0.000000
              19         20         21         22         23         24
     1  O    0.000001   0.000140  -0.000130  -0.110793   0.002095   0.005096
     2  O    0.009822   0.003834   0.002274   0.000000   0.000000  -0.000000
     3  N    0.000004   0.000105   0.000008   0.000278   0.000041  -0.000067
     4  H   -0.000001   0.000001  -0.000001   0.000130  -0.000014  -0.000059
     5  C    0.026650   0.044867   0.004031   0.005193  -0.000092  -0.000791
     6  C    0.000021  -0.001124   0.000232  -0.010971   0.015635  -0.031831
     7  C    0.001556   0.002860  -0.000884  -0.000287  -0.000025   0.000057
     8  C   -0.051704  -0.067981  -0.035429  -0.000033   0.000004  -0.000006
     9  C   -0.002575  -0.007146  -0.009624   0.000075  -0.003877   0.003609
    10  H    0.000654  -0.004543  -0.002039   0.000976  -0.000105  -0.000108
    11  H   -0.000089  -0.000385   0.001067   0.001618   0.000072  -0.000140
    12  C   -0.000574   0.007487  -0.000452  -0.286610  -0.012842   0.073244
    13  C   -0.000030   0.000589   0.000127   0.296132  -0.029284  -0.098227
    14  C    0.000054   0.000101  -0.000373  -0.000013  -0.000001   0.000000
    15  H   -0.000007  -0.000020  -0.000006   0.000002   0.000000   0.000000
    16  H   -0.000017  -0.000059   0.000049  -0.000000   0.000000   0.000000
    17  H    0.000006   0.000009  -0.000052   0.000000  -0.000000   0.000000
    18  C    0.384593   0.374770   0.398036   0.000013  -0.000003   0.000002
    19  H    0.513920  -0.020708  -0.013245  -0.000001  -0.000000   0.000000
    20  H   -0.020708   0.547876  -0.027892   0.000018  -0.000000  -0.000000
    21  H   -0.013245  -0.027892   0.515990  -0.000001   0.000001  -0.000000
    22  C   -0.000001   0.000018  -0.000001   5.463265   0.403169   0.391780
    23  H   -0.000000  -0.000000   0.000001   0.403169   0.510298  -0.027968
    24  H    0.000000  -0.000000  -0.000000   0.391780  -0.027968   0.552997
    25  H    0.000000   0.000000  -0.000002   0.370296  -0.012377  -0.021108
    26  C    0.000001  -0.000016   0.000002  -0.031393  -0.013438   0.015563
    27  H   -0.000000  -0.000000   0.000001  -0.011095   0.002501  -0.002377
    28  H    0.000000   0.000000  -0.000000   0.006116  -0.003428  -0.009010
    29  H    0.000000  -0.000000  -0.000000   0.001916  -0.000005   0.000791
              25         26         27         28         29
     1  O    0.009566   0.000758  -0.000066  -0.000391   0.000017
     2  O   -0.000000   0.000005   0.000000  -0.000000   0.000000
     3  N    0.000011  -0.036553  -0.002687   0.002049   0.002397
     4  H   -0.000003  -0.007213   0.000531   0.000773   0.001655
     5  C   -0.000147  -0.001216   0.000599  -0.000270  -0.000562
     6  C   -0.001836   0.175415  -0.048949  -0.062064  -0.057566
     7  C    0.000027   0.005795  -0.000081  -0.000425   0.003808
     8  C    0.000004   0.000457  -0.000026   0.000000   0.000008
     9  C    0.001794   0.024504  -0.002051   0.001891  -0.000690
    10  H   -0.000126  -0.000015   0.000021   0.000007  -0.000000
    11  H   -0.000041  -0.000523  -0.000013  -0.000015   0.000046
    12  C    0.024278  -0.075161  -0.016025   0.000749   0.023549
    13  C   -0.038180  -0.048858   0.005936  -0.002252  -0.000405
    14  C    0.000001   0.000648  -0.000300   0.000088   0.000054
    15  H    0.000000   0.000299   0.000005  -0.000009   0.000055
    16  H   -0.000000   0.000024   0.000010  -0.000004  -0.000010
    17  H    0.000000  -0.000110  -0.000036   0.000005   0.000010
    18  C    0.000002   0.000031  -0.000002   0.000001   0.000000
    19  H    0.000000   0.000001  -0.000000   0.000000   0.000000
    20  H    0.000000  -0.000016  -0.000000   0.000000  -0.000000
    21  H   -0.000002   0.000002   0.000001  -0.000000  -0.000000
    22  C    0.370296  -0.031393  -0.011095   0.006116   0.001916
    23  H   -0.012377  -0.013438   0.002501  -0.003428  -0.000005
    24  H   -0.021108   0.015563  -0.002377  -0.009010   0.000791
    25  H    0.510853   0.001716  -0.000386   0.001400  -0.000025
    26  C    0.001716   5.236639   0.432820   0.430849   0.394749
    27  H   -0.000386   0.432820   0.514074  -0.035837  -0.022167
    28  H    0.001400   0.430849  -0.035837   0.524520  -0.022420
    29  H   -0.000025   0.394749  -0.022167  -0.022420   0.528185
 Mulliken charges:
               1
     1  O   -0.388041
     2  O   -0.380352
     3  N   -0.131904
     4  H    0.293330
     5  C   -0.018340
     6  C    0.216165
     7  C    0.109722
     8  C    0.134334
     9  C   -0.328061
    10  H    0.207074
    11  H    0.218033
    12  C   -0.102207
    13  C    0.129920
    14  C   -0.381513
    15  H    0.119397
    16  H    0.160433
    17  H    0.159789
    18  C   -0.461793
    19  H    0.151670
    20  H    0.147219
    21  H    0.168313
    22  C   -0.489783
    23  H    0.169643
    24  H    0.148553
    25  H    0.154285
    26  C   -0.505777
    27  H    0.185603
    28  H    0.167676
    29  H    0.146613
 Sum of Mulliken charges =  -0.00000
 Mulliken charges with hydrogens summed into heavy atoms:
               1
     1  O   -0.388041
     2  O   -0.380352
     3  N    0.161426
     5  C   -0.018340
     6  C    0.216165
     7  C    0.109722
     8  C    0.134334
     9  C    0.097046
    12  C   -0.102207
    13  C    0.129920
    14  C    0.058106
    18  C    0.005409
    22  C   -0.017303
    26  C   -0.005886
 Electronic spatial extent (au):  <R**2>=           3196.1834
 Charge=             -0.0000 electrons
 Dipole moment (field-independent basis, Debye):
    X=              3.2840    Y=              7.5226    Z=             -0.5201  Tot=              8.2247
 Quadrupole moment (field-independent basis, Debye-Ang):
   XX=           -104.2976   YY=            -79.1189   ZZ=            -84.7495
   XY=             12.7061   XZ=              4.9170   YZ=             -1.5525
 Traceless Quadrupole moment (field-independent basis, Debye-Ang):
   XX=            -14.9089   YY=             10.2697   ZZ=              4.6392
   XY=             12.7061   XZ=              4.9170   YZ=             -1.5525
 Octapole moment (field-independent basis, Debye-Ang**2):
  XXX=            101.1886  YYY=             66.6839  ZZZ=              0.2903  XYY=            -36.8298
  XXY=             31.6686  XXZ=             -8.6132  XZZ=              0.8893  YZZ=             -1.8874
  YYZ=              2.4895  XYZ=             -5.4559
 Hexadecapole moment (field-independent basis, Debye-Ang**3):
 XXXX=          -3116.2731 YYYY=          -1289.5977 ZZZZ=           -149.8725 XXXY=             37.9431
 XXXZ=             54.8474 YYYX=             88.2690 YYYZ=            -21.2233 ZZZX=             -3.4308
 ZZZY=              5.7472 XXYY=           -714.1322 XXZZ=           -491.1589 YYZZ=           -244.2356
 XXYZ=             -8.6371 YYXZ=              8.2211 ZZXY=             -1.0403
 N-N= 9.006032085051D+02 E-N=-3.276855946725D+03  KE= 6.308036821544D+02
 No NMR shielding tensors so no spin-rotation constants.
 Leave Link  601 at Fri Jan 23 20:24:06 2026, MaxMem=  2147483648 cpu:               1.8 elap:               0.1
 (Enter /data/home/wyx/g16/l9999.exe)
 Electronic transition elements 
                 1             2             3             4             5 
      1  -0.633208D+03 -0.633179D+03 -0.633173D+03 -0.633143D+03 -0.633126D+03
      2  -0.158681D+01 -0.858580D-01 -0.701588D-01  0.386153D+00  0.441272D+00
      3  -0.364201D+00 -0.531046D-01  0.116395D+00 -0.170949D+01 -0.143608D+01
      4  -0.123050D+00  0.328981D-01 -0.415089D-01  0.178860D+00  0.932422D-01
      5   0.180292D+00  0.116601D-01  0.104082D-01 -0.639653D-01 -0.862447D-01
      6   0.450636D-01  0.801537D-02 -0.163339D-01  0.302611D+00  0.283397D+00
      7   0.130014D-01 -0.203375D-02  0.281525D-02 -0.277471D-01 -0.193734D-01
      8   0.101658D+00  0.820250D+00  0.518993D+00  0.683273D-01  0.160515D+00
      9  -0.154338D-01  0.148933D+00 -0.875631D+00 -0.707252D-01 -0.368720D-01
     10  -0.145596D+01 -0.161711D+00 -0.127616D+00  0.853879D-01  0.308532D+00
     11   0.177904D+00  0.365245D-01  0.228160D-01 -0.118128D+01 -0.559306D+00
     12  -0.264200D+00 -0.268461D-01 -0.394624D-01  0.165243D+00  0.335469D+00
     13   0.160646D-01 -0.896767D-02  0.367776D-01  0.102824D-01  0.488640D-01
     14  -0.489542D+00 -0.338206D-01 -0.465145D-01 -0.438508D+00 -0.690389D-01
     15   0.697182D-01 -0.105507D-01  0.583162D-01 -0.315434D-01 -0.128459D-01
     16  -0.197128D-01  0.800489D-01  0.269703D-01 -0.673009D-01  0.340967D-01
                 6 
      1  -0.633110D+03
      2  -0.599069D-01
      3   0.231162D+00
      4   0.488964D-01
      5   0.134378D-01
      6  -0.479806D-01
      7  -0.304075D-01
      8   0.737688D-03
      9  -0.114872D-01
     10   0.220682D-01
     11  -0.206066D+00
     12  -0.178323D+00
     13   0.158822D+00
     14  -0.120879D-02
     15  -0.356786D-01
     16   0.846204D-01
 1\1\GINC-CN012\SP\RCAM-B3LYP TD-FC\TZVP\C11H15N1O2\WYX\23-Jan-2026\0\\
 #p CAM-B3LYP TZVP em=gd3bj td(nstates=6,root=1) scrf=(Solvent=TetraHyd
 roFuran,CorrectedLR,NonEquilibrium=Save) Geom=Check Guess=Read\\Title 
 Card Required\\0,1\O,0,2.83728,-1.567999,0.10986\O,0,-3.423925,-1.6311
 19,-0.003771\N,0,-0.645845,1.513416,-0.299757\H,0,-0.955941,2.471832,-
 0.352195\C,0,-1.241712,-0.759173,-0.215224\C,0,0.693005,1.312111,-0.07
 5837\C,0,-1.620925,0.558075,-0.272713\C,0,-2.219571,-1.834676,-0.13025
 6\C,0,0.210436,-1.100856,-0.29372\H,0,0.445614,-1.932095,0.372715\H,0,
 0.451476,-1.50274,-1.289925\C,0,1.149958,0.023988,0.006447\C,0,2.51486
 2,-0.396705,0.30537\C,0,-3.009506,1.094465,-0.316623\H,0,-3.011495,2.1
 61633,-0.530987\H,0,-3.604571,0.585998,-1.067194\H,0,-3.517688,0.93600
 1,0.630868\C,0,-1.723892,-3.253853,-0.188795\H,0,-2.560126,-3.924674,-
 0.349755\H,0,-0.988069,-3.407961,-0.972958\H,0,-1.246045,-3.529866,0.7
 49934\C,0,3.544574,0.537713,0.89243\H,0,4.056132,1.087352,0.100054\H,0
 ,3.121944,1.258039,1.587977\H,0,4.285845,-0.070162,1.406075\C,0,1.4677
 62,2.58493,0.030338\H,0,1.591885,2.894403,1.067865\H,0,2.451681,2.5020
 89,-0.414331\H,0,0.946855,3.389833,-0.485892\\Version=ES64L-G16RevA.03
 \State=1-A\HF=-633.3269986\RMSD=2.882e-09\Dipole=0.2481475,3.2176636,-
 0.2359629\Quadrupole=-15.5722283,11.505806,4.0664223,1.4277678,1.64113
 25,0.1619382\PG=C01 [X(C11H15N1O2)]\\@


 IF NO USE IS MADE OF THE LABOR OF PAST AGES,
 THE WORLD MUST REMAIN ALWAYS IN THE INFANCY OF KNOWLEDGE.

                          -- CICERO
 Job cpu time:       0 days  2 hours 42 minutes  1.6 seconds.
 Elapsed time:       0 days  0 hours 10 minutes 26.4 seconds.
 File lengths (MBytes):  RWF=    735 Int=      0 D2E=      0 Chk=     67 Scr=      1
 Normal termination of Gaussian 16 at Fri Jan 23 20:24:10 2026.
