 Entering Gaussian System, Link 0=g16
 Input=DDL-S2-cLR-gs-4.gjf
 Output=DDL-S2-cLR-gs-4.log
 Initial command:
 /data/home/wyx/g16/l1.exe "/scr/tmp/wyx/13106/Gau-1985000.inp" -scrdir="/scr/tmp/wyx/13106/"
 Entering Link 1 = /data/home/wyx/g16/l1.exe PID=   1985001.
  
 Copyright (c) 1988,1990,1992,1993,1995,1998,2003,2009,2016,
            Gaussian, Inc.  All Rights Reserved.
  
 This is part of the Gaussian(R) 16 program.  It is based on
 the Gaussian(R) 09 system (copyright 2009, Gaussian, Inc.),
 the Gaussian(R) 03 system (copyright 2003, Gaussian, Inc.),
 the Gaussian(R) 98 system (copyright 1998, Gaussian, Inc.),
 the Gaussian(R) 94 system (copyright 1995, Gaussian, Inc.),
 the Gaussian 92(TM) system (copyright 1992, Gaussian, Inc.),
 the Gaussian 90(TM) system (copyright 1990, Gaussian, Inc.),
 the Gaussian 88(TM) system (copyright 1988, Gaussian, Inc.),
 the Gaussian 86(TM) system (copyright 1986, Carnegie Mellon
 University), and the Gaussian 82(TM) system (copyright 1983,
 Carnegie Mellon University). Gaussian is a federally registered
 trademark of Gaussian, Inc.
  
 This software contains proprietary and confidential information,
 including trade secrets, belonging to Gaussian, Inc.
  
 This software is provided under written license and may be
 used, copied, transmitted, or stored only in accord with that
 written license.
  
 The following legend is applicable only to US Government
 contracts under FAR:
  
                    RESTRICTED RIGHTS LEGEND
  
 Use, reproduction and disclosure by the US Government is
 subject to restrictions as set forth in subparagraphs (a)
 and (c) of the Commercial Computer Software - Restricted
 Rights clause in FAR 52.227-19.
  
 Gaussian, Inc.
 340 Quinnipiac St., Bldg. 40, Wallingford CT 06492
  
  
 ---------------------------------------------------------------
 Warning -- This program may not be used in any manner that
 competes with the business of Gaussian, Inc. or will provide
 assistance to any competitor of Gaussian, Inc.  The licensee
 of this program is prohibited from giving any competitor of
 Gaussian, Inc. access to this program.  By using this program,
 the user acknowledges that Gaussian, Inc. is engaged in the
 business of creating and licensing software in the field of
 computational chemistry and represents and warrants to the
 licensee that it is not a competitor of Gaussian, Inc. and that
 it will not use this program in any manner prohibited above.
 ---------------------------------------------------------------
  

 Cite this work as:
 Gaussian 16, Revision A.03,
 M. J. Frisch, G. W. Trucks, H. B. Schlegel, G. E. Scuseria, 
 M. A. Robb, J. R. Cheeseman, G. Scalmani, V. Barone, 
 G. A. Petersson, H. Nakatsuji, X. Li, M. Caricato, A. V. Marenich, 
 J. Bloino, B. G. Janesko, R. Gomperts, B. Mennucci, H. P. Hratchian, 
 J. V. Ortiz, A. F. Izmaylov, J. L. Sonnenberg, D. Williams-Young, 
 F. Ding, F. Lipparini, F. Egidi, J. Goings, B. Peng, A. Petrone, 
 T. Henderson, D. Ranasinghe, V. G. Zakrzewski, J. Gao, N. Rega, 
 G. Zheng, W. Liang, M. Hada, M. Ehara, K. Toyota, R. Fukuda, 
 J. Hasegawa, M. Ishida, T. Nakajima, Y. Honda, O. Kitao, H. Nakai, 
 T. Vreven, K. Throssell, J. A. Montgomery, Jr., J. E. Peralta, 
 F. Ogliaro, M. J. Bearpark, J. J. Heyd, E. N. Brothers, K. N. Kudin, 
 V. N. Staroverov, T. A. Keith, R. Kobayashi, J. Normand, 
 K. Raghavachari, A. P. Rendell, J. C. Burant, S. S. Iyengar, 
 J. Tomasi, M. Cossi, J. M. Millam, M. Klene, C. Adamo, R. Cammi, 
 J. W. Ochterski, R. L. Martin, K. Morokuma, O. Farkas, 
 J. B. Foresman, and D. J. Fox, Gaussian, Inc., Wallingford CT, 2016.
 
 ******************************************
 Gaussian 16:  ES64L-G16RevA.03 25-Dec-2016
                23-Jan-2026 
 ******************************************
 %nprocshared=16
 Will use up to   16 processors via shared memory.
 %mem=16GB
 %oldchk=DDL-S2-cLR-4.chk
 %chk=DDL-S2-cLR-gs-4.chk
 Copying data from "DDL-S2-cLR-4.chk" to current chk file "DDL-S2-cLR-gs-4.chk"
 IOpt=  2 FromEx=T IUOpen= 4 IOptOp= 5 NList=   0 IFRang= 0 IUIn= 4 IUOut= 2.
 ----------------------------------------------------------------------
 #p CAM-B3LYP TZVP em=gd3bj scrf=(Solvent=TetraHydroFuran,NonEquilibriu
 m=Read) Geom=Check Guess=Read
 ----------------------------------------------------------------------
 1/29=2,38=1,172=1/1;
 2/12=2,40=1/2;
 3/5=19,7=101,11=2,14=-4,25=1,30=1,70=6002201,72=20,74=-40,116=-2,124=41/1,2,3;
 4/5=1/1;
 5/5=2,38=6,53=20/2;
 6/7=2,8=2,9=2,10=2,28=1/1;
 99/5=1,9=1/99;
 Leave Link    1 at Fri Jan 23 22:36:10 2026, MaxMem=  2147483648 cpu:               0.8 elap:               0.1
 (Enter /data/home/wyx/g16/l101.exe)
 -------------------
 Title Card Required
 -------------------
 Structure from the checkpoint file:  "DDL-S2-cLR-gs-4.chk"
 Charge =  0 Multiplicity = 1
 Z-Matrix found in chk file.
 O,0,2.839421,-1.57264,0.048152
 O,0,-3.428654,-1.646247,-0.121592
 N,0,-0.662201,1.517198,-0.202023
 H,0,-0.973828,2.477465,-0.251968
 C,0,-1.247513,-0.762104,-0.203101
 C,0,0.680986,1.331579,-0.031141
 C,0,-1.636011,0.575649,-0.243178
 C,0,-2.213017,-1.844705,-0.175252
 C,0,0.196604,-1.085194,-0.204921
 H,0,0.412075,-1.894741,0.500373
 H,0,0.470926,-1.553803,-1.167351
 C,0,1.147796,0.025634,0.036418
 C,0,2.517546,-0.401163,0.275026
 C,0,-3.024467,1.103643,-0.344409
 H,0,-3.022323,2.186079,-0.465058
 H,0,-3.552581,0.662731,-1.184804
 H,0,-3.604974,0.858342,0.541022
 C,0,-1.711074,-3.265541,-0.185786
 H,0,-2.523113,-3.926939,-0.468945
 H,0,-0.875891,-3.422496,-0.862191
 H,0,-1.376159,-3.556394,0.809912
 C,0,3.563273,0.529112,0.840553
 H,0,4.069925,1.069899,0.038479
 H,0,3.157905,1.257314,1.538206
 H,0,4.306638,-0.081406,1.348611
 C,0,1.469123,2.597785,0.02607
 H,0,1.698388,2.895827,1.049694
 H,0,2.408054,2.509173,-0.51047
 H,0,0.913146,3.415943,-0.430325
 Recover connectivity data from disk.
 ITRead=  0  0  0  0  0  0  0  0  0  0  0  0  0  0  0  0  0  0  0  0
 ITRead=  0  0  0  0  0  0  0  0  0
 MicOpt= -1 -1 -1 -1 -1 -1 -1 -1 -1 -1 -1 -1 -1 -1 -1 -1 -1 -1 -1 -1
 MicOpt= -1 -1 -1 -1 -1 -1 -1 -1 -1
 NAtoms=     29 NQM=       29 NQMF=       0 NMMI=      0 NMMIF=      0
                NMic=       0 NMicF=      0.
                    Isotopes and Nuclear Properties:
 (Nuclear quadrupole moments (NQMom) in fm**2, nuclear magnetic moments (NMagM)
  in nuclear magnetons)

  Atom         1           2           3           4           5           6           7           8           9          10
 IAtWgt=          16          16          14           1          12          12          12          12          12           1
 AtmWgt=  15.9949146  15.9949146  14.0030740   1.0078250  12.0000000  12.0000000  12.0000000  12.0000000  12.0000000   1.0078250
 NucSpn=           0           0           2           1           0           0           0           0           0           1
 AtZEff=   5.6000000   5.6000000   4.5500000   1.0000000   3.6000000   3.6000000   3.6000000   3.6000000   3.6000000   1.0000000
 NQMom=    0.0000000   0.0000000   2.0440000   0.0000000   0.0000000   0.0000000   0.0000000   0.0000000   0.0000000   0.0000000
 NMagM=    0.0000000   0.0000000   0.4037610   2.7928460   0.0000000   0.0000000   0.0000000   0.0000000   0.0000000   2.7928460
 AtZNuc=   8.0000000   8.0000000   7.0000000   1.0000000   6.0000000   6.0000000   6.0000000   6.0000000   6.0000000   1.0000000

  Atom        11          12          13          14          15          16          17          18          19          20
 IAtWgt=           1          12          12          12           1           1           1          12           1           1
 AtmWgt=   1.0078250  12.0000000  12.0000000  12.0000000   1.0078250   1.0078250   1.0078250  12.0000000   1.0078250   1.0078250
 NucSpn=           1           0           0           0           1           1           1           0           1           1
 AtZEff=   1.0000000   3.6000000   3.6000000   3.6000000   1.0000000   1.0000000   1.0000000   3.6000000   1.0000000   1.0000000
 NQMom=    0.0000000   0.0000000   0.0000000   0.0000000   0.0000000   0.0000000   0.0000000   0.0000000   0.0000000   0.0000000
 NMagM=    2.7928460   0.0000000   0.0000000   0.0000000   2.7928460   2.7928460   2.7928460   0.0000000   2.7928460   2.7928460
 AtZNuc=   1.0000000   6.0000000   6.0000000   6.0000000   1.0000000   1.0000000   1.0000000   6.0000000   1.0000000   1.0000000

  Atom        21          22          23          24          25          26          27          28          29
 IAtWgt=           1          12           1           1           1          12           1           1           1
 AtmWgt=   1.0078250  12.0000000   1.0078250   1.0078250   1.0078250  12.0000000   1.0078250   1.0078250   1.0078250
 NucSpn=           1           0           1           1           1           0           1           1           1
 AtZEff=   1.0000000   3.6000000   1.0000000   1.0000000   1.0000000   3.6000000   1.0000000   1.0000000   1.0000000
 NQMom=    0.0000000   0.0000000   0.0000000   0.0000000   0.0000000   0.0000000   0.0000000   0.0000000   0.0000000
 NMagM=    2.7928460   0.0000000   2.7928460   2.7928460   2.7928460   0.0000000   2.7928460   2.7928460   2.7928460
 AtZNuc=   1.0000000   6.0000000   1.0000000   1.0000000   1.0000000   6.0000000   1.0000000   1.0000000   1.0000000
 Leave Link  101 at Fri Jan 23 22:36:14 2026, MaxMem=  2147483648 cpu:               0.9 elap:               0.1
 (Enter /data/home/wyx/g16/l202.exe)
                          Input orientation:                          
 ---------------------------------------------------------------------
 Center     Atomic      Atomic             Coordinates (Angstroms)
 Number     Number       Type             X           Y           Z
 ---------------------------------------------------------------------
      1          8           0        2.839421   -1.572640    0.048152
      2          8           0       -3.428654   -1.646247   -0.121592
      3          7           0       -0.662201    1.517198   -0.202023
      4          1           0       -0.973828    2.477465   -0.251968
      5          6           0       -1.247513   -0.762104   -0.203101
      6          6           0        0.680986    1.331579   -0.031141
      7          6           0       -1.636011    0.575649   -0.243178
      8          6           0       -2.213017   -1.844705   -0.175252
      9          6           0        0.196604   -1.085194   -0.204921
     10          1           0        0.412075   -1.894741    0.500373
     11          1           0        0.470926   -1.553803   -1.167351
     12          6           0        1.147796    0.025634    0.036418
     13          6           0        2.517546   -0.401163    0.275026
     14          6           0       -3.024467    1.103643   -0.344409
     15          1           0       -3.022323    2.186079   -0.465058
     16          1           0       -3.552581    0.662731   -1.184804
     17          1           0       -3.604974    0.858342    0.541022
     18          6           0       -1.711074   -3.265541   -0.185786
     19          1           0       -2.523113   -3.926939   -0.468945
     20          1           0       -0.875891   -3.422496   -0.862191
     21          1           0       -1.376159   -3.556394    0.809912
     22          6           0        3.563273    0.529112    0.840553
     23          1           0        4.069925    1.069899    0.038479
     24          1           0        3.157905    1.257314    1.538206
     25          1           0        4.306638   -0.081406    1.348611
     26          6           0        1.469123    2.597785    0.026070
     27          1           0        1.698388    2.895827    1.049694
     28          1           0        2.408054    2.509173   -0.510470
     29          1           0        0.913146    3.415943   -0.430325
 ---------------------------------------------------------------------
                    Distance matrix (angstroms):
                    1          2          3          4          5
     1  O    0.000000
     2  O    6.270805   0.000000
     3  N    4.676649   4.203227   0.000000
     4  H    5.570843   4.800851   1.010801   0.000000
     5  C    4.174102   2.354937   2.353255   3.251476   0.000000
     6  C    3.619339   5.075901   1.366677   2.024902   2.851699
     7  C    4.972877   2.857477   1.355180   2.013819   1.393600
     8  C    5.064687   1.232898   3.702450   4.496958   1.450861
     9  C    2.699283   3.669362   2.740438   3.750288   1.479819
    10  H    2.490032   3.898691   3.645375   4.647895   2.128843
    11  H    2.662249   4.038426   3.412753   4.379082   2.123581
    12  C    2.327276   4.874838   2.357479   3.255139   2.532865
    13  C    1.235894   6.088090   3.744125   4.555646   3.812421
    14  C    6.457691   2.788352   2.402416   2.470031   2.580416
    15  H    6.982220   3.869082   2.467137   2.080059   3.451138
    16  H    6.882932   2.545026   3.170216   3.288375   2.882227
    17  H    6.905275   2.596750   3.105820   3.189565   2.955873
    18  C    4.860828   2.361422   4.896426   5.790512   2.546053
    19  H    5.879361   2.478349   5.759589   6.592705   3.422573
    20  H    4.249028   3.196896   4.988192   5.932243   2.765897
    21  H    4.720876   2.954505   5.222555   6.139781   2.975030
    22  C    2.359920   7.385456   4.462948   5.057170   5.089215
    23  H    2.915004   7.976952   4.759300   5.244525   5.629364
    24  H    3.214083   7.387040   4.205847   4.665266   5.149554
    25  H    2.463270   8.027762   5.445123   6.082187   5.806871
    26  C    4.389835   6.482425   2.400466   2.461664   4.326833
    27  H    4.719347   6.949022   3.006625   3.001681   4.860894
    28  H    4.142383   7.175368   3.241237   3.391895   4.915170
    29  H    5.368932   6.676250   2.477715   2.115000   4.709156
                    6          7          8          9         10
     6  C    0.000000
     7  C    2.446398   0.000000
     8  C    4.299395   2.489109   0.000000
     9  C    2.470955   2.473528   2.526660   0.000000
    10  H    3.280848   3.293987   2.711103   1.095095   0.000000
    11  H    3.108139   3.134939   2.876184   1.105042   1.703234
    12  C    1.388513   2.851363   3.852017   1.482211   2.108170
    13  C    2.543440   4.298224   4.966366   2.466783   2.591248
    14  C    3.725651   1.488904   3.062649   3.896891   4.638295
    15  H    3.825304   2.136487   4.121430   4.596780   5.420354
    16  H    4.438624   2.137167   3.016764   4.251094   5.009888
    17  H    4.349802   2.138153   3.123629   4.334254   4.870093
    18  C    5.184533   3.842352   1.506928   2.897156   2.618715
    19  H    6.173324   4.594695   2.125585   3.942345   3.699288
    20  H    5.071069   4.116567   2.179270   2.654285   2.418568
    21  H    5.369497   4.272037   2.144938   3.100048   2.460627
    22  C    3.116309   5.311233   6.327116   3.877301   3.990092
    23  H    3.399740   5.734224   6.929355   4.439176   4.730994
    24  H    2.933171   5.159421   6.434692   4.158742   4.307218
    25  H    4.128631   6.187131   6.923676   4.507042   4.378962
    26  C    1.492552   3.715291   5.773595   3.903459   4.639515
    27  H    2.156428   4.262976   6.266756   4.435983   4.990581
    28  H    2.144586   4.490481   6.357902   4.231235   4.939655
    29  H    2.134905   3.821059   6.124735   4.563384   5.414853
                   11         12         13         14         15
    11  H    0.000000
    12  C    2.098055   0.000000
    13  C    2.756390   1.454409   0.000000
    14  C    4.467329   4.326073   5.775989   0.000000
    15  H    5.165532   4.723229   6.158871   1.089141   0.000000
    16  H    4.593684   4.898042   6.333199   1.086081   1.766295
    17  H    5.034873   4.851479   6.256385   1.086807   1.764813
    18  C    2.941877   4.365128   5.128181   4.565077   5.614047
    19  H    3.883789   5.417915   6.196195   5.057037   6.133369
    20  H    2.323586   4.097854   4.683709   5.036905   6.018388
    21  H    3.366254   4.449670   5.040092   5.075955   6.108306
    22  C    4.234716   2.595121   1.509562   6.718076   6.915218
    23  H    4.614177   3.103116   2.151711   7.104797   7.197179
    24  H    4.737328   2.795164   2.180878   6.464486   6.562842
    25  H    4.817749   3.422220   2.110848   7.616808   7.883182
    26  C    4.433546   2.592165   3.186669   4.749954   4.536937
    27  H    5.120660   3.093200   3.484433   5.240306   5.008326
    28  H    4.548816   2.838187   3.016463   5.613856   5.440170
    29  H    5.043525   3.430321   4.200228   4.567155   4.123310
                   16         17         18         19         20
    16  H    0.000000
    17  H    1.737666   0.000000
    18  C    4.452023   4.595815   0.000000
    19  H    4.757870   5.008929   1.084912   0.000000
    20  H    4.894673   5.267113   1.086135   1.767044   0.000000
    21  H    5.149439   4.952758   1.090036   1.757351   1.750464
    22  C    7.399683   7.182052   6.578108   7.656061   6.182291
    23  H    7.730770   7.694243   7.229542   8.288186   6.741952
    24  H    7.266288   6.847634   6.865517   7.948528   6.628276
    25  H    8.290914   8.008054   6.978965   8.045939   6.550506
    26  C    5.516173   5.388627   6.673614   7.665182   6.521647
    27  H    6.127999   5.704011   7.149356   8.165627   7.085437
    28  H    6.276404   6.323558   7.100701   8.108124   6.789160
    29  H    5.300201   5.281879   7.182518   8.107236   7.081766
                   21         22         23         24         25
    21  H    0.000000
    22  C    6.410171   0.000000
    23  H    7.187317   1.092003   0.000000
    24  H    6.652814   1.086886   1.765244   0.000000
    25  H    6.682808   1.087863   1.760109   1.774177   0.000000
    26  C    6.825244   3.054219   3.016415   2.633515   4.120518
    27  H    7.151328   3.020410   3.159234   2.248012   3.969413
    28  H    7.270129   2.660909   2.265981   2.515254   3.711051
    29  H    7.442620   4.119721   3.960928   3.684255   5.187663
                   26         27         28         29
    26  C    0.000000
    27  H    1.090503   0.000000
    28  H    1.085043   1.757054   0.000000
    29  H    1.089399   1.754304   1.750259   0.000000
 Stoichiometry    C11H15NO2
 Framework group  C1[X(C11H15NO2)]
 Deg. of freedom    81
 Full point group                 C1      NOp   1
 RotChk:  IX=0 Diff= 5.01D-16
 Largest Abelian subgroup         C1      NOp   1
 Largest concise Abelian subgroup C1      NOp   1
                         Standard orientation:                         
 ---------------------------------------------------------------------
 Center     Atomic      Atomic             Coordinates (Angstroms)
 Number     Number       Type             X           Y           Z
 ---------------------------------------------------------------------
      1          8           0        2.284489   -2.284716   -0.265779
      2          8           0       -3.625876   -0.258165    0.266831
      3          7           0        0.019246    1.803153   -0.095343
      4          1           0        0.045173    2.813601   -0.101714
      5          6           0       -1.295030   -0.148384   -0.050716
      6          6           0        1.231876    1.173058   -0.077574
      7          6           0       -1.213166    1.242725   -0.035386
      8          6           0       -2.560004   -0.847577    0.075651
      9          6           0       -0.051833   -0.933658   -0.217055
     10          1           0       -0.049903   -1.800142    0.452598
     11          1           0       -0.051243   -1.422289   -1.208194
     12          6           0        1.236839   -0.215441   -0.074088
     13          6           0        2.400211   -1.084620    0.005904
     14          6           0       -2.345944    2.207148    0.024106
     15          1           0       -1.992447    3.231362   -0.086595
     16          1           0       -3.074773    2.006329   -0.755670
     17          1           0       -2.881065    2.128968    0.966805
     18          6           0       -2.568780   -2.352405   -0.003397
     19          1           0       -3.580388   -2.691804   -0.199588
     20          1           0       -1.909010   -2.747470   -0.770415
     21          1           0       -2.250881   -2.783490    0.945962
     22          6           0        3.749943   -0.582781    0.458848
     23          1           0        4.323799   -0.205537   -0.390178
     24          1           0        3.686774    0.206108    1.203822
     25          1           0        4.292766   -1.428653    0.875131
     26          6           0        2.401241    2.100356   -0.097958
     27          1           0        2.821053    2.257789    0.896110
     28          1           0        3.195459    1.728687   -0.737019
     29          1           0        2.108949    3.076985   -0.482080
 ---------------------------------------------------------------------
 Rotational constants (GHZ):           1.0750734           0.4899629           0.3432279
 Leave Link  202 at Fri Jan 23 22:36:14 2026, MaxMem=  2147483648 cpu:               0.0 elap:               0.0
 (Enter /data/home/wyx/g16/l301.exe)
 Standard basis: TZVP (5D, 7F)
 Ernie: Thresh=  0.10000D-02 Tol=  0.10000D-05 Strict=F.
 There are   370 symmetry adapted cartesian basis functions of A   symmetry.
 There are   356 symmetry adapted basis functions of A   symmetry.
   356 basis functions,   610 primitive gaussians,   370 cartesian basis functions
    52 alpha electrons       52 beta electrons
       nuclear repulsion energy       899.4608969052 Hartrees.
 IExCor=20419 DFT=T Ex+Corr=CAM-B3LYP ExCW=0 ScaHFX=  1.000000
 ScaDFX=  1.000000  1.000000  1.000000  0.810000 ScalE2=  1.000000  1.000000
 IRadAn=      5 IRanWt=     -1 IRanGd=            0 ICorTp=0 IEmpDi=141
 HFx  wShort=  0.000000 wLong=  0.330000 cFull=  0.190000 cShort=  0.000000 cLong=  0.460000
 DFx  wShort=  0.000000 wLong=  0.330000 cFull=  0.190000 cShort=  0.000000 cLong=  0.460000
 NAtoms=   29 NActive=   29 NUniq=   29 SFac= 1.00D+00 NAtFMM=   60 NAOKFM=F Big=F
 Integral buffers will be    131072 words long.
 Raffenetti 2 integral format.
 Two-electron integral symmetry is turned on.
 R6Disp:  Grimme-D3(BJ) Dispersion energy=       -0.0261346867 Hartrees.
 Nuclear repulsion after empirical dispersion term =      899.4347622185 Hartrees.
 ------------------------------------------------------------------------------
 Polarizable Continuum Model (PCM)
 =================================
 Model                : PCM.
 Atomic radii         : UFF (Universal Force Field).
 Polarization charges : Total charges.
 Charge compensation  : None.
 Solution method      : On-the-fly selection.
 Cavity type          : Scaled VdW (van der Waals Surface) (Alpha=1.100).
 Cavity algorithm     : GePol (No added spheres)
                        Default sphere list used, NSphG=   29.
                        Lebedev-Laikov grids with approx.  5.0 points / Ang**2.
                        Smoothing algorithm: York/Karplus (Gamma=1.0000).
                        Polarization charges: spherical gaussians, with
                                              point-specific exponents (IZeta= 3).
                        Self-potential: point-specific (ISelfS= 7).
                        Self-field    : sphere-specific E.n sum rule (ISelfD= 2).
 Solvent              : TetraHydroFuran, Eps=   7.425700 Eps(inf)=   1.974025
 ------------------------------------------------------------------------------
 GePol: Number of generator spheres                  =      29
 GePol: Total number of spheres                      =      29
 GePol: Number of exposed spheres                    =      29 (100.00%)
 GePol: Number of points                             =    2102
 GePol: Average weight of points                     =       0.13
 GePol: Minimum weight of points                     =   0.14D-11
 GePol: Maximum weight of points                     =    0.20577
 GePol: Number of points with low weight             =     127
 GePol: Fraction of low-weight points (<1% of avg)   =       6.04%
 GePol: Cavity surface area                          =    269.055 Ang**2
 GePol: Cavity volume                                =    287.082 Ang**3
 Leave Link  301 at Fri Jan 23 22:36:14 2026, MaxMem=  2147483648 cpu:               0.6 elap:               0.0
 (Enter /data/home/wyx/g16/l302.exe)
 NPDir=0 NMtPBC=     1 NCelOv=     1 NCel=       1 NClECP=     1 NCelD=      1
         NCelK=      1 NCelE2=     1 NClLst=     1 CellRange=     0.0.
 One-electron integrals computed using PRISM.
 One-electron integral symmetry used in STVInt
 NBasis=   356 RedAO= T EigKep=  4.19D-05  NBF=   356
 NBsUse=   356 1.00D-06 EigRej= -1.00D+00 NBFU=   356
 Precomputing XC quadrature grid using
 IXCGrd= 4 IRadAn=           5 IRanWt=          -1 IRanGd=           0 AccXCQ= 0.00D+00.
 Generated NRdTot=       0 NPtTot=           0 NUsed=           0 NTot=          32
 NSgBfM=   366   366   366   366   366 MxSgAt=    29 MxSgA2=    29.
 Leave Link  302 at Fri Jan 23 22:36:15 2026, MaxMem=  2147483648 cpu:               3.1 elap:               0.2
 (Enter /data/home/wyx/g16/l303.exe)
 DipDrv:  MaxL=1.
 Leave Link  303 at Fri Jan 23 22:36:15 2026, MaxMem=  2147483648 cpu:               0.6 elap:               0.0
 (Enter /data/home/wyx/g16/l401.exe)
 Initial guess from the checkpoint file:  "DDL-S2-cLR-gs-4.chk"
 B after Tr=     0.000000   -0.000000    0.000000
         Rot=    1.000000    0.000000    0.000000    0.000000 Ang=   0.00 deg.
 Guess basis will be translated and rotated to current coordinates.
 JPrj=2 DoOrth=T DoCkMO=T.
 Leave Link  401 at Fri Jan 23 22:36:15 2026, MaxMem=  2147483648 cpu:               2.2 elap:               0.2
 (Enter /data/home/wyx/g16/l502.exe)
 Integral symmetry usage will be decided dynamically.
 Closed shell SCF:
 Using DIIS extrapolation, IDIIS=  1040.
 NGot=  2147483648 LenX=  2147200095 LenY=  2147062754
 Requested convergence on RMS density matrix=1.00D-08 within 128 cycles.
 Requested convergence on MAX density matrix=1.00D-06.
 Requested convergence on             energy=1.00D-06.
 No special actions if energy rises.
 Fock matrices will be formed incrementally for  20 cycles.

 Cycle   1  Pass 1  IDiag  1:
 FoFJK:  IHMeth= 1 ICntrl=       0 DoSepK=T KAlg= 0 I1Cent=           0 FoldK=F
 IRaf=         1 NMat=       1 IRICut=       1 DoRegI=T DoRafI=F ISym2E= 0 IDoP0=0 IntGTp=1.
 FoFCou: FMM=F IPFlag=           0 FMFlag=      100000 FMFlg1=           0
         NFxFlg=           0 DoJE=T BraDBF=F KetDBF=F FulRan=T
         wScrn=  0.000000 ICntrl=       500 IOpCl=  0 I1Cent=           0 NGrid=           0
         NMat0=    1 NMatS0=      1 NMatT0=    0 NMatD0=    1 NMtDS0=    0 NMtDT0=    0
 Symmetry not used in FoFCou.
 Inv3:  Mode=1 IEnd=    13255212.
 Iteration    1 A*A^-1 deviation from unit magnitude is 3.55D-15 for    365.
 Iteration    1 A*A^-1 deviation from orthogonality  is 1.88D-15 for   1350    915.
 Iteration    1 A^-1*A deviation from unit magnitude is 3.33D-15 for    601.
 Iteration    1 A^-1*A deviation from orthogonality  is 2.20D-15 for   1093     55.
 NEqPCM:  Using non-equilibrium solvation (IEInf=1, Eps=   7.4257, EpsInf=   1.9740)
 Inv3:  Mode=1 IEnd=    13255212.
 Iteration    1 A*A^-1 deviation from unit magnitude is 3.33D-15 for    729.
 Iteration    1 A*A^-1 deviation from orthogonality  is 1.69D-15 for   1461   1291.
 Iteration    1 A^-1*A deviation from unit magnitude is 3.33D-15 for    370.
 Iteration    1 A^-1*A deviation from orthogonality  is 2.30D-15 for   1389    890.
 E= -633.320406603442    
 DIIS: error= 5.15D-04 at cycle   1 NSaved=   1.
 NSaved= 1 IEnMin= 1 EnMin= -633.320406603442     IErMin= 1 ErrMin= 5.15D-04
 ErrMax= 5.15D-04  0.00D+00 EMaxC= 1.00D-01 BMatC= 5.28D-05 BMatP= 5.28D-05
 IDIUse=3 WtCom= 9.95D-01 WtEn= 5.15D-03
 Coeff-Com:  0.100D+01
 Coeff-En:   0.100D+01
 Coeff:      0.100D+01
 Gap=     0.221 Goal=   None    Shift=    0.000
 RMSDP=3.22D-04 MaxDP=2.33D-02              OVMax= 8.93D-03

 Cycle   2  Pass 1  IDiag  1:
 RMSU=  3.18D-04    CP:  1.00D+00
 E= -633.320507242013     Delta-E=       -0.000100638572 Rises=F Damp=F
 DIIS: error= 3.42D-04 at cycle   2 NSaved=   2.
 NSaved= 2 IEnMin= 2 EnMin= -633.320507242013     IErMin= 2 ErrMin= 3.42D-04
 ErrMax= 3.42D-04  0.00D+00 EMaxC= 1.00D-01 BMatC= 5.26D-05 BMatP= 5.28D-05
 IDIUse=3 WtCom= 9.97D-01 WtEn= 3.42D-03
 Coeff-Com:  0.499D+00 0.501D+00
 Coeff-En:   0.000D+00 0.100D+01
 Coeff:      0.498D+00 0.502D+00
 Gap=     0.220 Goal=   None    Shift=    0.000
 RMSDP=8.91D-05 MaxDP=4.97D-03 DE=-1.01D-04 OVMax= 1.80D-03

 Cycle   3  Pass 1  IDiag  1:
 RMSU=  8.14D-05    CP:  1.00D+00  9.73D-01
 E= -633.320548677261     Delta-E=       -0.000041435247 Rises=F Damp=F
 DIIS: error= 1.35D-04 at cycle   3 NSaved=   3.
 NSaved= 3 IEnMin= 3 EnMin= -633.320548677261     IErMin= 3 ErrMin= 1.35D-04
 ErrMax= 1.35D-04  0.00D+00 EMaxC= 1.00D-01 BMatC= 6.45D-06 BMatP= 5.26D-05
 IDIUse=3 WtCom= 9.99D-01 WtEn= 1.35D-03
 Coeff-Com:  0.639D-01 0.235D+00 0.701D+00
 Coeff-En:   0.000D+00 0.000D+00 0.100D+01
 Coeff:      0.638D-01 0.234D+00 0.702D+00
 Gap=     0.220 Goal=   None    Shift=    0.000
 RMSDP=2.41D-05 MaxDP=1.22D-03 DE=-4.14D-05 OVMax= 1.34D-03

 Cycle   4  Pass 1  IDiag  1:
 RMSU=  1.73D-05    CP:  1.00D+00  9.94D-01  1.19D+00
 E= -633.320554639989     Delta-E=       -0.000005962728 Rises=F Damp=F
 DIIS: error= 6.96D-05 at cycle   4 NSaved=   4.
 NSaved= 4 IEnMin= 4 EnMin= -633.320554639989     IErMin= 4 ErrMin= 6.96D-05
 ErrMax= 6.96D-05  0.00D+00 EMaxC= 1.00D-01 BMatC= 5.95D-07 BMatP= 6.45D-06
 IDIUse=1 WtCom= 1.00D+00 WtEn= 0.00D+00
 Coeff-Com: -0.140D-01 0.141D-01 0.217D+00 0.783D+00
 Coeff:     -0.140D-01 0.141D-01 0.217D+00 0.783D+00
 Gap=     0.220 Goal=   None    Shift=    0.000
 RMSDP=1.66D-05 MaxDP=9.06D-04 DE=-5.96D-06 OVMax= 8.48D-04

 Cycle   5  Pass 1  IDiag  1:
 RMSU=  7.88D-06    CP:  1.00D+00  1.00D+00  1.35D+00  1.05D+00
 E= -633.320555566462     Delta-E=       -0.000000926473 Rises=F Damp=F
 DIIS: error= 2.44D-05 at cycle   5 NSaved=   5.
 NSaved= 5 IEnMin= 5 EnMin= -633.320555566462     IErMin= 5 ErrMin= 2.44D-05
 ErrMax= 2.44D-05  0.00D+00 EMaxC= 1.00D-01 BMatC= 1.72D-07 BMatP= 5.95D-07
 IDIUse=1 WtCom= 1.00D+00 WtEn= 0.00D+00
 Coeff-Com: -0.141D-01-0.357D-01-0.813D-02 0.364D+00 0.694D+00
 Coeff:     -0.141D-01-0.357D-01-0.813D-02 0.364D+00 0.694D+00
 Gap=     0.220 Goal=   None    Shift=    0.000
 RMSDP=6.74D-06 MaxDP=3.18D-04 DE=-9.26D-07 OVMax= 3.39D-04

 Cycle   6  Pass 1  IDiag  1:
 RMSU=  2.67D-06    CP:  1.00D+00  1.00D+00  1.41D+00  1.24D+00  1.06D+00
 E= -633.320555857116     Delta-E=       -0.000000290654 Rises=F Damp=F
 DIIS: error= 1.90D-05 at cycle   6 NSaved=   6.
 NSaved= 6 IEnMin= 6 EnMin= -633.320555857116     IErMin= 6 ErrMin= 1.90D-05
 ErrMax= 1.90D-05  0.00D+00 EMaxC= 1.00D-01 BMatC= 1.95D-08 BMatP= 1.72D-07
 IDIUse=1 WtCom= 1.00D+00 WtEn= 0.00D+00
 Coeff-Com: -0.527D-03-0.175D-01-0.281D-01-0.881D-03 0.175D+00 0.872D+00
 Coeff:     -0.527D-03-0.175D-01-0.281D-01-0.881D-03 0.175D+00 0.872D+00
 Gap=     0.220 Goal=   None    Shift=    0.000
 RMSDP=3.08D-06 MaxDP=1.29D-04 DE=-2.91D-07 OVMax= 2.75D-04

 Cycle   7  Pass 1  IDiag  1:
 RMSU=  1.20D-06    CP:  1.00D+00  1.00D+00  1.44D+00  1.32D+00  1.17D+00
                    CP:  1.30D+00
 E= -633.320555921103     Delta-E=       -0.000000063987 Rises=F Damp=F
 DIIS: error= 7.61D-06 at cycle   7 NSaved=   7.
 NSaved= 7 IEnMin= 7 EnMin= -633.320555921103     IErMin= 7 ErrMin= 7.61D-06
 ErrMax= 7.61D-06  0.00D+00 EMaxC= 1.00D-01 BMatC= 1.06D-08 BMatP= 1.95D-08
 IDIUse=1 WtCom= 1.00D+00 WtEn= 0.00D+00
 Coeff-Com:  0.286D-02-0.343D-02-0.863D-02-0.773D-01-0.111D+00 0.463D+00
 Coeff-Com:  0.734D+00
 Coeff:      0.286D-02-0.343D-02-0.863D-02-0.773D-01-0.111D+00 0.463D+00
 Coeff:      0.734D+00
 Gap=     0.220 Goal=   None    Shift=    0.000
 RMSDP=1.46D-06 MaxDP=5.48D-05 DE=-6.40D-08 OVMax= 1.45D-04

 Cycle   8  Pass 1  IDiag  1:
 RMSU=  4.67D-07    CP:  1.00D+00  9.99D-01  1.45D+00  1.36D+00  1.22D+00
                    CP:  1.56D+00  1.14D+00
 E= -633.320555942035     Delta-E=       -0.000000020932 Rises=F Damp=F
 DIIS: error= 2.52D-06 at cycle   8 NSaved=   8.
 NSaved= 8 IEnMin= 8 EnMin= -633.320555942035     IErMin= 8 ErrMin= 2.52D-06
 ErrMax= 2.52D-06  0.00D+00 EMaxC= 1.00D-01 BMatC= 1.02D-09 BMatP= 1.06D-08
 IDIUse=1 WtCom= 1.00D+00 WtEn= 0.00D+00
 Coeff-Com:  0.115D-02 0.787D-03 0.253D-02-0.249D-01-0.862D-01 0.203D-01
 Coeff-Com:  0.248D+00 0.838D+00
 Coeff:      0.115D-02 0.787D-03 0.253D-02-0.249D-01-0.862D-01 0.203D-01
 Coeff:      0.248D+00 0.838D+00
 Gap=     0.220 Goal=   None    Shift=    0.000
 RMSDP=5.78D-07 MaxDP=2.15D-05 DE=-2.09D-08 OVMax= 5.68D-05

 Cycle   9  Pass 1  IDiag  1:
 RMSU=  1.66D-07    CP:  1.00D+00  9.98D-01  1.45D+00  1.37D+00  1.22D+00
                    CP:  1.69D+00  1.33D+00  1.14D+00
 E= -633.320555944550     Delta-E=       -0.000000002515 Rises=F Damp=F
 DIIS: error= 8.23D-07 at cycle   9 NSaved=   9.
 NSaved= 9 IEnMin= 9 EnMin= -633.320555944550     IErMin= 9 ErrMin= 8.23D-07
 ErrMax= 8.23D-07  0.00D+00 EMaxC= 1.00D-01 BMatC= 1.34D-10 BMatP= 1.02D-09
 IDIUse=1 WtCom= 1.00D+00 WtEn= 0.00D+00
 Coeff-Com:  0.184D-04 0.683D-03 0.226D-02 0.418D-02-0.195D-01-0.602D-01
 Coeff-Com: -0.134D-02 0.341D+00 0.733D+00
 Coeff:      0.184D-04 0.683D-03 0.226D-02 0.418D-02-0.195D-01-0.602D-01
 Coeff:     -0.134D-02 0.341D+00 0.733D+00
 Gap=     0.220 Goal=   None    Shift=    0.000
 RMSDP=1.99D-07 MaxDP=1.12D-05 DE=-2.52D-09 OVMax= 1.66D-05

 Cycle  10  Pass 1  IDiag  1:
 RMSU=  7.61D-08    CP:  1.00D+00  9.98D-01  1.45D+00  1.38D+00  1.21D+00
                    CP:  1.72D+00  1.39D+00  1.25D+00  9.74D-01
 E= -633.320555944801     Delta-E=       -0.000000000251 Rises=F Damp=F
 DIIS: error= 2.56D-07 at cycle  10 NSaved=  10.
 NSaved=10 IEnMin=10 EnMin= -633.320555944801     IErMin=10 ErrMin= 2.56D-07
 ErrMax= 2.56D-07  0.00D+00 EMaxC= 1.00D-01 BMatC= 2.82D-11 BMatP= 1.34D-10
 IDIUse=1 WtCom= 1.00D+00 WtEn= 0.00D+00
 Coeff-Com: -0.104D-03 0.345D-03 0.315D-03 0.442D-02 0.158D-02-0.273D-01
 Coeff-Com: -0.265D-01 0.229D-01 0.312D+00 0.713D+00
 Coeff:     -0.104D-03 0.345D-03 0.315D-03 0.442D-02 0.158D-02-0.273D-01
 Coeff:     -0.265D-01 0.229D-01 0.312D+00 0.713D+00
 Gap=     0.220 Goal=   None    Shift=    0.000
 RMSDP=6.68D-08 MaxDP=3.93D-06 DE=-2.51D-10 OVMax= 4.53D-06

 Cycle  11  Pass 1  IDiag  1:
 RMSU=  2.19D-08    CP:  1.00D+00  9.98D-01  1.45D+00  1.38D+00  1.21D+00
                    CP:  1.73D+00  1.42D+00  1.28D+00  1.12D+00  1.10D+00
 E= -633.320555944830     Delta-E=       -0.000000000028 Rises=F Damp=F
 DIIS: error= 1.12D-07 at cycle  11 NSaved=  11.
 NSaved=11 IEnMin=11 EnMin= -633.320555944830     IErMin=11 ErrMin= 1.12D-07
 ErrMax= 1.12D-07  0.00D+00 EMaxC= 1.00D-01 BMatC= 5.10D-12 BMatP= 2.82D-11
 IDIUse=1 WtCom= 1.00D+00 WtEn= 0.00D+00
 Coeff-Com: -0.645D-04 0.107D-03-0.334D-03 0.167D-02 0.464D-02-0.223D-02
 Coeff-Com: -0.115D-01-0.582D-01 0.247D-01 0.328D+00 0.714D+00
 Coeff:     -0.645D-04 0.107D-03-0.334D-03 0.167D-02 0.464D-02-0.223D-02
 Coeff:     -0.115D-01-0.582D-01 0.247D-01 0.328D+00 0.714D+00
 Gap=     0.220 Goal=   None    Shift=    0.000
 RMSDP=3.59D-08 MaxDP=3.04D-06 DE=-2.84D-11 OVMax= 1.60D-06

 Cycle  12  Pass 1  IDiag  1:
 RMSU=  1.21D-08    CP:  1.00D+00  9.98D-01  1.45D+00  1.38D+00  1.21D+00
                    CP:  1.73D+00  1.42D+00  1.29D+00  1.15D+00  1.26D+00
                    CP:  9.84D-01
 E= -633.320555944843     Delta-E=       -0.000000000013 Rises=F Damp=F
 DIIS: error= 4.55D-08 at cycle  12 NSaved=  12.
 NSaved=12 IEnMin=12 EnMin= -633.320555944843     IErMin=12 ErrMin= 4.55D-08
 ErrMax= 4.55D-08  0.00D+00 EMaxC= 1.00D-01 BMatC= 7.19D-13 BMatP= 5.10D-12
 IDIUse=1 WtCom= 1.00D+00 WtEn= 0.00D+00
 Coeff-Com: -0.148D-04 0.253D-04-0.189D-03 0.143D-03 0.169D-02 0.255D-02
 Coeff-Com: -0.434D-03-0.273D-01-0.240D-01 0.391D-01 0.324D+00 0.685D+00
 Coeff:     -0.148D-04 0.253D-04-0.189D-03 0.143D-03 0.169D-02 0.255D-02
 Coeff:     -0.434D-03-0.273D-01-0.240D-01 0.391D-01 0.324D+00 0.685D+00
 Gap=     0.220 Goal=   None    Shift=    0.000
 RMSDP=7.79D-09 MaxDP=4.86D-07 DE=-1.30D-11 OVMax= 5.49D-07

 Error on total polarization charges =  0.00930
 SCF Done:  E(RCAM-B3LYP) =  -633.320555945     A.U. after   12 cycles
            NFock= 12  Conv=0.78D-08     -V/T= 2.0042
 KE= 6.306669880382D+02 PE=-3.274915824319D+03 EE= 1.111493518117D+03
 Leave Link  502 at Fri Jan 23 22:37:10 2026, MaxMem=  2147483648 cpu:             863.6 elap:              55.1
 (Enter /data/home/wyx/g16/l601.exe)
 Copying SCF densities to generalized density rwf, IOpCl= 0 IROHF=0.

 **********************************************************************

            Population analysis using the SCF density.

 **********************************************************************

 Orbital symmetries:
       Occupied  (A) (A) (A) (A) (A) (A) (A) (A) (A) (A) (A) (A)
                 (A) (A) (A) (A) (A) (A) (A) (A) (A) (A) (A) (A)
                 (A) (A) (A) (A) (A) (A) (A) (A) (A) (A) (A) (A)
                 (A) (A) (A) (A) (A) (A) (A) (A) (A) (A) (A) (A)
                 (A) (A) (A) (A)
       Virtual   (A) (A) (A) (A) (A) (A) (A) (A) (A) (A) (A) (A)
                 (A) (A) (A) (A) (A) (A) (A) (A) (A) (A) (A) (A)
                 (A) (A) (A) (A) (A) (A) (A) (A) (A) (A) (A) (A)
                 (A) (A) (A) (A) (A) (A) (A) (A) (A) (A) (A) (A)
                 (A) (A) (A) (A) (A) (A) (A) (A) (A) (A) (A) (A)
                 (A) (A) (A) (A) (A) (A) (A) (A) (A) (A) (A) (A)
                 (A) (A) (A) (A) (A) (A) (A) (A) (A) (A) (A) (A)
                 (A) (A) (A) (A) (A) (A) (A) (A) (A) (A) (A) (A)
                 (A) (A) (A) (A) (A) (A) (A) (A) (A) (A) (A) (A)
                 (A) (A) (A) (A) (A) (A) (A) (A) (A) (A) (A) (A)
                 (A) (A) (A) (A) (A) (A) (A) (A) (A) (A) (A) (A)
                 (A) (A) (A) (A) (A) (A) (A) (A) (A) (A) (A) (A)
                 (A) (A) (A) (A) (A) (A) (A) (A) (A) (A) (A) (A)
                 (A) (A) (A) (A) (A) (A) (A) (A) (A) (A) (A) (A)
                 (A) (A) (A) (A) (A) (A) (A) (A) (A) (A) (A) (A)
                 (A) (A) (A) (A) (A) (A) (A) (A) (A) (A) (A) (A)
                 (A) (A) (A) (A) (A) (A) (A) (A) (A) (A) (A) (A)
                 (A) (A) (A) (A) (A) (A) (A) (A) (A) (A) (A) (A)
                 (A) (A) (A) (A) (A) (A) (A) (A) (A) (A) (A) (A)
                 (A) (A) (A) (A) (A) (A) (A) (A) (A) (A) (A) (A)
                 (A) (A) (A) (A) (A) (A) (A) (A) (A) (A) (A) (A)
                 (A) (A) (A) (A) (A) (A) (A) (A) (A) (A) (A) (A)
                 (A) (A) (A) (A) (A) (A) (A) (A) (A) (A) (A) (A)
                 (A) (A) (A) (A) (A) (A) (A) (A) (A) (A) (A) (A)
                 (A) (A) (A) (A) (A) (A) (A) (A) (A) (A) (A) (A)
                 (A) (A) (A) (A)
 The electronic state is 1-A.
 Alpha  occ. eigenvalues --  -19.18071 -19.16628 -14.44927 -10.33626 -10.33060
 Alpha  occ. eigenvalues --  -10.32516 -10.32143 -10.26567 -10.25614 -10.25024
 Alpha  occ. eigenvalues --  -10.24734 -10.24619 -10.24538 -10.23231  -1.11725
 Alpha  occ. eigenvalues --   -1.10574  -1.08610  -0.91662  -0.90631  -0.84059
 Alpha  occ. eigenvalues --   -0.82797  -0.81801  -0.78555  -0.74065  -0.72239
 Alpha  occ. eigenvalues --   -0.68800  -0.61682  -0.58437  -0.57166  -0.55368
 Alpha  occ. eigenvalues --   -0.54841  -0.54010  -0.52573  -0.51900  -0.51052
 Alpha  occ. eigenvalues --   -0.49948  -0.49497  -0.49223  -0.48811  -0.48135
 Alpha  occ. eigenvalues --   -0.47279  -0.45449  -0.44830  -0.44132  -0.43455
 Alpha  occ. eigenvalues --   -0.42301  -0.42203  -0.41388  -0.32821  -0.32368
 Alpha  occ. eigenvalues --   -0.30805  -0.25355
 Alpha virt. eigenvalues --   -0.03308   0.02494   0.05956   0.07879   0.08259
 Alpha virt. eigenvalues --    0.09553   0.10778   0.11554   0.12376   0.13276
 Alpha virt. eigenvalues --    0.13739   0.14612   0.15456   0.16354   0.16953
 Alpha virt. eigenvalues --    0.17571   0.17782   0.17907   0.18408   0.19273
 Alpha virt. eigenvalues --    0.19720   0.21987   0.22572   0.23347   0.23605
 Alpha virt. eigenvalues --    0.23733   0.24741   0.25473   0.26299   0.26625
 Alpha virt. eigenvalues --    0.27161   0.27902   0.28280   0.29289   0.30166
 Alpha virt. eigenvalues --    0.31515   0.31746   0.32235   0.33259   0.34194
 Alpha virt. eigenvalues --    0.34580   0.35854   0.36716   0.37712   0.38401
 Alpha virt. eigenvalues --    0.39622   0.40817   0.41255   0.41648   0.42261
 Alpha virt. eigenvalues --    0.43879   0.44701   0.45458   0.46111   0.46477
 Alpha virt. eigenvalues --    0.47147   0.47611   0.47931   0.48340   0.48958
 Alpha virt. eigenvalues --    0.49375   0.50558   0.51300   0.51452   0.51582
 Alpha virt. eigenvalues --    0.52649   0.52760   0.53163   0.53799   0.54166
 Alpha virt. eigenvalues --    0.54279   0.55188   0.55805   0.56584   0.58071
 Alpha virt. eigenvalues --    0.58283   0.59753   0.60984   0.61498   0.63010
 Alpha virt. eigenvalues --    0.63844   0.65104   0.66356   0.66869   0.67544
 Alpha virt. eigenvalues --    0.68733   0.69453   0.70588   0.71163   0.71948
 Alpha virt. eigenvalues --    0.72967   0.74462   0.74900   0.75753   0.77520
 Alpha virt. eigenvalues --    0.78926   0.80202   0.83212   0.86250   0.87351
 Alpha virt. eigenvalues --    0.91041   0.95479   1.02000   1.04389   1.22181
 Alpha virt. eigenvalues --    1.24207   1.26996   1.28500   1.29050   1.30360
 Alpha virt. eigenvalues --    1.31873   1.32947   1.34325   1.35043   1.36071
 Alpha virt. eigenvalues --    1.36631   1.37959   1.38271   1.38595   1.39430
 Alpha virt. eigenvalues --    1.39835   1.40294   1.40654   1.41192   1.41888
 Alpha virt. eigenvalues --    1.43298   1.43350   1.44241   1.45353   1.47248
 Alpha virt. eigenvalues --    1.47925   1.49314   1.49905   1.50224   1.50271
 Alpha virt. eigenvalues --    1.51127   1.52133   1.52650   1.55337   1.58447
 Alpha virt. eigenvalues --    1.59309   1.60081   1.60860   1.61503   1.62335
 Alpha virt. eigenvalues --    1.62460   1.63078   1.63654   1.64342   1.65852
 Alpha virt. eigenvalues --    1.66334   1.66966   1.67402   1.67788   1.68483
 Alpha virt. eigenvalues --    1.68986   1.69670   1.70111   1.70862   1.72228
 Alpha virt. eigenvalues --    1.74052   1.74728   1.75645   1.76622   1.78475
 Alpha virt. eigenvalues --    1.81302   1.82613   1.83649   1.85503   1.86497
 Alpha virt. eigenvalues --    1.86660   1.88108   1.88587   1.88971   1.90127
 Alpha virt. eigenvalues --    1.91054   1.94303   1.94894   1.99018   1.99691
 Alpha virt. eigenvalues --    2.01389   2.03744   2.05418   2.06710   2.09376
 Alpha virt. eigenvalues --    2.10297   2.11670   2.15532   2.17449   2.19515
 Alpha virt. eigenvalues --    2.20317   2.20964   2.21987   2.22780   2.26530
 Alpha virt. eigenvalues --    2.27083   2.27271   2.29137   2.31201   2.32164
 Alpha virt. eigenvalues --    2.33768   2.34186   2.36676   2.37837   2.39110
 Alpha virt. eigenvalues --    2.39335   2.40290   2.41340   2.42674   2.44893
 Alpha virt. eigenvalues --    2.45828   2.47748   2.49016   2.49865   2.51133
 Alpha virt. eigenvalues --    2.52338   2.54159   2.54550   2.56426   2.57343
 Alpha virt. eigenvalues --    2.58537   2.61087   2.61711   2.62424   2.63276
 Alpha virt. eigenvalues --    2.64679   2.65522   2.66494   2.67321   2.68394
 Alpha virt. eigenvalues --    2.71571   2.71926   2.73785   2.74766   2.75354
 Alpha virt. eigenvalues --    2.76418   2.76822   2.77173   2.78069   2.78910
 Alpha virt. eigenvalues --    2.80902   2.81812   2.83109   2.83890   2.84841
 Alpha virt. eigenvalues --    2.85577   2.86265   2.88735   2.89206   2.92136
 Alpha virt. eigenvalues --    2.97219   2.99066   3.00773   3.06660   3.10622
 Alpha virt. eigenvalues --    3.12026   3.14796   3.17564   3.18993   3.21231
 Alpha virt. eigenvalues --    3.22211   3.23400   3.25004   3.25601   3.27039
 Alpha virt. eigenvalues --    3.28386   3.30387   3.32569   3.34734   3.36322
 Alpha virt. eigenvalues --    3.37987   3.38552   3.39652   3.39837   3.41774
 Alpha virt. eigenvalues --    3.42042   3.43931   3.44895   3.47816   3.48532
 Alpha virt. eigenvalues --    3.49500   3.49950   3.55613   3.58284   3.60094
 Alpha virt. eigenvalues --    3.61052   3.90878   4.00524   4.33119   4.36710
 Alpha virt. eigenvalues --   21.67387  21.80674  22.08013  22.10266  22.11842
 Alpha virt. eigenvalues --   22.14745  22.15226  22.18194  22.19260  22.24817
 Alpha virt. eigenvalues --   22.27745  31.91377  43.63802  43.66999
          Condensed to atoms (all electrons):
               1          2          3          4          5          6
     1  O    7.929605   0.000000  -0.000184   0.000019   0.019098   0.009536
     2  O    0.000000   7.957307   0.000509   0.000021  -0.188592   0.001261
     3  N   -0.000184   0.000509   6.382551   0.370065  -0.124121   0.328566
     4  H    0.000019   0.000021   0.370065   0.413311   0.015771  -0.046885
     5  C    0.019098  -0.188592  -0.124121   0.015771   7.145754  -0.084299
     6  C    0.009536   0.001261   0.328566  -0.046885  -0.084299   5.592004
     7  C   -0.000085  -0.048677   0.387312  -0.037050   0.460649  -0.125547
     8  C   -0.000699   0.696749   0.004515  -0.000817  -0.304052   0.031648
     9  C   -0.004405   0.026505   0.014828   0.000137  -0.728691  -0.043163
    10  H    0.008927  -0.000017  -0.001238   0.000023  -0.117995   0.029570
    11  H    0.007513   0.000118   0.003557   0.000035  -0.054054  -0.020393
    12  C   -0.232027  -0.003122  -0.091215   0.014519   0.205391  -0.099788
    13  C    0.716782  -0.000011   0.001784   0.000562   0.083564   0.129668
    14  C   -0.000008   0.001597  -0.033408  -0.010037  -0.088529   0.012021
    15  H   -0.000000   0.004183   0.004220   0.002100   0.022027   0.006542
    16  H    0.000000   0.001411  -0.000081   0.000808  -0.007464  -0.001260
    17  H   -0.000000   0.002529  -0.002025   0.000931  -0.009583  -0.001414
    18  C    0.000260  -0.100445  -0.000470   0.000022  -0.253626  -0.000107
    19  H   -0.000001   0.007339   0.000005  -0.000001   0.020907   0.000023
    20  H    0.000151   0.004159   0.000111   0.000001   0.045385  -0.001251
    21  H   -0.000004   0.000750   0.000012  -0.000001   0.002882   0.000211
    22  C   -0.105934   0.000000  -0.000257   0.000120   0.004059  -0.023749
    23  H    0.001411   0.000000   0.000015  -0.000012  -0.000015   0.008743
    24  H    0.005053  -0.000000   0.000169  -0.000056  -0.000721  -0.026687
    25  H    0.006664   0.000000   0.000023  -0.000003  -0.000142  -0.000783
    26  C    0.000795   0.000010  -0.025788  -0.006537   0.000419   0.190206
    27  H   -0.000052  -0.000000  -0.002577   0.000489   0.000400  -0.032817
    28  H   -0.000241  -0.000000   0.001284   0.000746   0.000039  -0.047121
    29  H    0.000023   0.000000   0.001710   0.001980  -0.000355  -0.049502
               7          8          9         10         11         12
     1  O   -0.000085  -0.000699  -0.004405   0.008927   0.007513  -0.232027
     2  O   -0.048677   0.696749   0.026505  -0.000017   0.000118  -0.003122
     3  N    0.387312   0.004515   0.014828  -0.001238   0.003557  -0.091215
     4  H   -0.037050  -0.000817   0.000137   0.000023   0.000035   0.014519
     5  C    0.460649  -0.304052  -0.728691  -0.117995  -0.054054   0.205391
     6  C   -0.125547   0.031648  -0.043163   0.029570  -0.020393  -0.099788
     7  C    5.430675  -0.224814  -0.222728   0.016064  -0.005896   0.027027
     8  C   -0.224814   5.362272   0.204356  -0.008352  -0.002577  -0.052413
     9  C   -0.222728   0.204356   6.471125   0.539817   0.418101  -0.162360
    10  H    0.016064  -0.008352   0.539817   0.531437  -0.048110  -0.109564
    11  H   -0.005896  -0.002577   0.418101  -0.048110   0.580705  -0.016344
    12  C    0.027027  -0.052413  -0.162360  -0.109564  -0.016344   7.427548
    13  C    0.018213  -0.008747  -0.243135  -0.001544  -0.007334  -0.495830
    14  C    0.283223  -0.023298   0.008177   0.000461  -0.000841  -0.001504
    15  H   -0.090051   0.005277   0.000812  -0.000005   0.000044  -0.001614
    16  H   -0.020391  -0.006970  -0.000557  -0.000054   0.000179   0.000210
    17  H   -0.016421  -0.002228   0.000882   0.000061  -0.000063   0.000372
    18  C   -0.000683   0.320106   0.002638   0.005589  -0.012484  -0.001082
    19  H    0.000090  -0.048887  -0.002013   0.000565   0.000122  -0.000171
    20  H    0.003836  -0.072506  -0.008086  -0.007028   0.002484   0.007904
    21  H   -0.000411  -0.024061  -0.009789  -0.000506   0.000734  -0.002760
    22  C    0.000201  -0.000076   0.009799  -0.001080   0.003212  -0.254706
    23  H   -0.000008   0.000002  -0.002174  -0.000129   0.000183  -0.011072
    24  H   -0.000029   0.000008   0.002841   0.000087  -0.000218   0.066479
    25  H    0.000010   0.000002   0.000198  -0.000039  -0.000096   0.019820
    26  C    0.002423   0.000808   0.022380   0.000145  -0.000724  -0.084783
    27  H   -0.000817  -0.000014  -0.000474   0.000036  -0.000005  -0.017614
    28  H   -0.000718   0.000002  -0.000179   0.000017  -0.000118  -0.008394
    29  H    0.003078  -0.000004  -0.000494  -0.000015   0.000090   0.023551
              13         14         15         16         17         18
     1  O    0.716782  -0.000008  -0.000000   0.000000  -0.000000   0.000260
     2  O   -0.000011   0.001597   0.004183   0.001411   0.002529  -0.100445
     3  N    0.001784  -0.033408   0.004220  -0.000081  -0.002025  -0.000470
     4  H    0.000562  -0.010037   0.002100   0.000808   0.000931   0.000022
     5  C    0.083564  -0.088529   0.022027  -0.007464  -0.009583  -0.253626
     6  C    0.129668   0.012021   0.006542  -0.001260  -0.001414  -0.000107
     7  C    0.018213   0.283223  -0.090051  -0.020391  -0.016421  -0.000683
     8  C   -0.008747  -0.023298   0.005277  -0.006970  -0.002228   0.320106
     9  C   -0.243135   0.008177   0.000812  -0.000557   0.000882   0.002638
    10  H   -0.001544   0.000461  -0.000005  -0.000054   0.000061   0.005589
    11  H   -0.007334  -0.000841   0.000044   0.000179  -0.000063  -0.012484
    12  C   -0.495830  -0.001504  -0.001614   0.000210   0.000372  -0.001082
    13  C    5.575740   0.000074  -0.000040  -0.000004  -0.000007   0.001444
    14  C    0.000074   5.016167   0.393128   0.415171   0.407462   0.001741
    15  H   -0.000040   0.393128   0.587129  -0.028856  -0.027127   0.000244
    16  H   -0.000004   0.415171  -0.028856   0.504422  -0.023583  -0.000225
    17  H   -0.000007   0.407462  -0.027127  -0.023583   0.501231   0.000029
    18  C    0.001444   0.001741   0.000244  -0.000225   0.000029   5.314273
    19  H   -0.000015  -0.000014  -0.000004   0.000041  -0.000030   0.397725
    20  H    0.000877   0.000060  -0.000015  -0.000027   0.000002   0.379848
    21  H   -0.000160  -0.000226  -0.000005   0.000013  -0.000007   0.399508
    22  C    0.278668  -0.000009   0.000002  -0.000000   0.000000   0.000040
    23  H   -0.021886  -0.000001   0.000000  -0.000000   0.000000  -0.000002
    24  H   -0.099906   0.000002   0.000000   0.000000   0.000000   0.000001
    25  H   -0.034877   0.000000   0.000000   0.000000  -0.000000  -0.000001
    26  C   -0.053977   0.000715   0.000259   0.000017  -0.000081   0.000008
    27  H    0.006697  -0.000105  -0.000004   0.000004  -0.000005  -0.000000
    28  H   -0.002054   0.000057  -0.000008  -0.000002   0.000001  -0.000000
    29  H   -0.001353  -0.000145   0.000099  -0.000002  -0.000000  -0.000000
              19         20         21         22         23         24
     1  O   -0.000001   0.000151  -0.000004  -0.105934   0.001411   0.005053
     2  O    0.007339   0.004159   0.000750   0.000000   0.000000  -0.000000
     3  N    0.000005   0.000111   0.000012  -0.000257   0.000015   0.000169
     4  H   -0.000001   0.000001  -0.000001   0.000120  -0.000012  -0.000056
     5  C    0.020907   0.045385   0.002882   0.004059  -0.000015  -0.000721
     6  C    0.000023  -0.001251   0.000211  -0.023749   0.008743  -0.026687
     7  C    0.000090   0.003836  -0.000411   0.000201  -0.000008  -0.000029
     8  C   -0.048887  -0.072506  -0.024061  -0.000076   0.000002   0.000008
     9  C   -0.002013  -0.008086  -0.009789   0.009799  -0.002174   0.002841
    10  H    0.000565  -0.007028  -0.000506  -0.001080  -0.000129   0.000087
    11  H    0.000122   0.002484   0.000734   0.003212   0.000183  -0.000218
    12  C   -0.000171   0.007904  -0.002760  -0.254706  -0.011072   0.066479
    13  C   -0.000015   0.000877  -0.000160   0.278668  -0.021886  -0.099906
    14  C   -0.000014   0.000060  -0.000226  -0.000009  -0.000001   0.000002
    15  H   -0.000004  -0.000015  -0.000005   0.000002   0.000000   0.000000
    16  H    0.000041  -0.000027   0.000013  -0.000000  -0.000000   0.000000
    17  H   -0.000030   0.000002  -0.000007   0.000000   0.000000   0.000000
    18  C    0.397725   0.379848   0.399508   0.000040  -0.000002   0.000001
    19  H    0.497653  -0.025309  -0.008621  -0.000000   0.000000   0.000000
    20  H   -0.025309   0.545014  -0.024648   0.000031  -0.000000  -0.000000
    21  H   -0.008621  -0.024648   0.495154  -0.000012   0.000000   0.000000
    22  C   -0.000000   0.000031  -0.000012   5.435199   0.400099   0.396382
    23  H    0.000000  -0.000000   0.000000   0.400099   0.495663  -0.028023
    24  H    0.000000  -0.000000   0.000000   0.396382  -0.028023   0.549950
    25  H   -0.000000  -0.000000   0.000000   0.382619  -0.007756  -0.022428
    26  C    0.000000  -0.000018   0.000003  -0.033217  -0.010668   0.016736
    27  H    0.000000   0.000000  -0.000000  -0.010754   0.000913  -0.001841
    28  H   -0.000000  -0.000000   0.000000   0.004174   0.000088  -0.007464
    29  H    0.000000   0.000000  -0.000000   0.002098   0.000178   0.000603
              25         26         27         28         29
     1  O    0.006664   0.000795  -0.000052  -0.000241   0.000023
     2  O    0.000000   0.000010  -0.000000  -0.000000   0.000000
     3  N    0.000023  -0.025788  -0.002577   0.001284   0.001710
     4  H   -0.000003  -0.006537   0.000489   0.000746   0.001980
     5  C   -0.000142   0.000419   0.000400   0.000039  -0.000355
     6  C   -0.000783   0.190206  -0.032817  -0.047121  -0.049502
     7  C    0.000010   0.002423  -0.000817  -0.000718   0.003078
     8  C    0.000002   0.000808  -0.000014   0.000002  -0.000004
     9  C    0.000198   0.022380  -0.000474  -0.000179  -0.000494
    10  H   -0.000039   0.000145   0.000036   0.000017  -0.000015
    11  H   -0.000096  -0.000724  -0.000005  -0.000118   0.000090
    12  C    0.019820  -0.084783  -0.017614  -0.008394   0.023551
    13  C   -0.034877  -0.053977   0.006697  -0.002054  -0.001353
    14  C    0.000000   0.000715  -0.000105   0.000057  -0.000145
    15  H    0.000000   0.000259  -0.000004  -0.000008   0.000099
    16  H    0.000000   0.000017   0.000004  -0.000002  -0.000002
    17  H   -0.000000  -0.000081  -0.000005   0.000001  -0.000000
    18  C   -0.000001   0.000008  -0.000000  -0.000000  -0.000000
    19  H   -0.000000   0.000000   0.000000  -0.000000   0.000000
    20  H   -0.000000  -0.000018   0.000000  -0.000000   0.000000
    21  H    0.000000   0.000003  -0.000000   0.000000  -0.000000
    22  C    0.382619  -0.033217  -0.010754   0.004174   0.002098
    23  H   -0.007756  -0.010668   0.000913   0.000088   0.000178
    24  H   -0.022428   0.016736  -0.001841  -0.007464   0.000603
    25  H    0.491598   0.001891   0.000119   0.000596  -0.000036
    26  C    0.001891   5.240005   0.426585   0.431988   0.388414
    27  H    0.000119   0.426585   0.481268  -0.027718  -0.017050
    28  H    0.000596   0.431988  -0.027718   0.506124  -0.025220
    29  H   -0.000036   0.388414  -0.017050  -0.025220   0.518359
 Mulliken charges:
               1
     1  O   -0.362198
     2  O   -0.363583
     3  N   -0.219874
     4  H    0.279737
     5  C   -0.064105
     6  C    0.264769
     7  C    0.161525
     8  C    0.154772
     9  C   -0.294344
    10  H    0.162878
    11  H    0.152180
    12  C   -0.146457
    13  C    0.156807
    14  C   -0.381932
    15  H    0.121662
    16  H    0.167201
    17  H    0.169072
    18  C   -0.454349
    19  H    0.160599
    20  H    0.149025
    21  H    0.171945
    22  C   -0.486905
    23  H    0.174452
    24  H    0.149062
    25  H    0.162619
    26  C   -0.508014
    27  H    0.195337
    28  H    0.174123
    29  H    0.153996
 Sum of Mulliken charges =  -0.00000
 Mulliken charges with hydrogens summed into heavy atoms:
               1
     1  O   -0.362198
     2  O   -0.363583
     3  N    0.059864
     5  C   -0.064105
     6  C    0.264769
     7  C    0.161525
     8  C    0.154772
     9  C    0.020714
    12  C   -0.146457
    13  C    0.156807
    14  C    0.076004
    18  C    0.027219
    22  C   -0.000771
    26  C    0.015442
 Electronic spatial extent (au):  <R**2>=           3202.7018
 Charge=             -0.0000 electrons
 Dipole moment (field-independent basis, Debye):
    X=              3.5929    Y=              7.3546    Z=              0.1806  Tot=              8.1873
 Quadrupole moment (field-independent basis, Debye-Ang):
   XX=            -96.8031   YY=            -78.2987   ZZ=            -84.9646
   XY=             12.4755   XZ=              3.9313   YZ=             -2.2338
 Traceless Quadrupole moment (field-independent basis, Debye-Ang):
   XX=            -10.1143   YY=              8.3901   ZZ=              1.7242
   XY=             12.4755   XZ=              3.9313   YZ=             -2.2338
 Octapole moment (field-independent basis, Debye-Ang**2):
  XXX=            103.1416  YYY=             63.0208  ZZZ=              1.3611  XYY=            -35.4645
  XXY=             30.5972  XXZ=             -4.4153  XZZ=              0.2434  YZZ=             -1.3791
  YYZ=              4.7220  XYZ=             -5.2085
 Hexadecapole moment (field-independent basis, Debye-Ang**3):
 XXXX=          -3036.6778 YYYY=          -1293.9411 ZZZZ=           -143.3180 XXXY=             35.9757
 XXXZ=             42.5531 YYYX=             89.2743 YYYZ=            -19.5481 ZZZX=             -3.8991
 ZZZY=              2.3333 XXYY=           -687.6430 XXZZ=           -478.8873 YYZZ=           -245.2693
 XXYZ=            -10.1569 YYXZ=              9.4767 ZZXY=             -0.0664
 N-N= 8.994347622185D+02 E-N=-3.274915828155D+03  KE= 6.306669880382D+02
 No NMR shielding tensors so no spin-rotation constants.
 Leave Link  601 at Fri Jan 23 22:37:14 2026, MaxMem=  2147483648 cpu:               1.8 elap:               0.1
 (Enter /data/home/wyx/g16/l9999.exe)
 1\1\GINC-CN012\SP\RCAM-B3LYP\TZVP\C11H15N1O2\WYX\23-Jan-2026\0\\#p CAM
 -B3LYP TZVP em=gd3bj scrf=(Solvent=TetraHydroFuran,NonEquilibrium=Read
 ) Geom=Check Guess=Read\\Title Card Required\\0,1\O,0,2.839421,-1.5726
 4,0.048152\O,0,-3.428654,-1.646247,-0.121592\N,0,-0.662201,1.517198,-0
 .202023\H,0,-0.973828,2.477465,-0.251968\C,0,-1.247513,-0.762104,-0.20
 3101\C,0,0.680986,1.331579,-0.031141\C,0,-1.636011,0.575649,-0.243178\
 C,0,-2.213017,-1.844705,-0.175252\C,0,0.196604,-1.085194,-0.204921\H,0
 ,0.412075,-1.894741,0.500373\H,0,0.470926,-1.553803,-1.167351\C,0,1.14
 7796,0.025634,0.036418\C,0,2.517546,-0.401163,0.275026\C,0,-3.024467,1
 .103643,-0.344409\H,0,-3.022323,2.186079,-0.465058\H,0,-3.552581,0.662
 731,-1.184804\H,0,-3.604974,0.858342,0.541022\C,0,-1.711074,-3.265541,
 -0.185786\H,0,-2.523113,-3.926939,-0.468945\H,0,-0.875891,-3.422496,-0
 .862191\H,0,-1.376159,-3.556394,0.809912\C,0,3.563273,0.529112,0.84055
 3\H,0,4.069925,1.069899,0.038479\H,0,3.157905,1.257314,1.538206\H,0,4.
 306638,-0.081406,1.348611\C,0,1.469123,2.597785,0.02607\H,0,1.698388,2
 .895827,1.049694\H,0,2.408054,2.509173,-0.51047\H,0,0.913146,3.415943,
 -0.430325\\Version=ES64L-G16RevA.03\State=1-A\HF=-633.3205559\RMSD=7.7
 90e-09\Dipole=0.3515031,3.2008036,0.0830907\Quadrupole=-12.4049214,10.
 5454106,1.8595108,2.9081794,1.7426654,-0.3386759\PG=C01 [X(C11H15N1O2)
 ]\\@


 READER, WHETHER YOU BE DILETTANTE OR PROFESSOR ... SHOW YOURSELF TO BE
 MORE HUMAN THAN CRITICAL, AND THEN YOUR PLEASURE WILL INCREASE.
                                           -- DOMENICO SCARLATTI (1738)
 Job cpu time:       0 days  0 hours 14 minutes 33.9 seconds.
 Elapsed time:       0 days  0 hours  0 minutes 56.0 seconds.
 File lengths (MBytes):  RWF=    339 Int=      0 D2E=      0 Chk=     67 Scr=      1
 Normal termination of Gaussian 16 at Fri Jan 23 22:37:14 2026.
