 Entering Gaussian System, Link 0=g16
 Input=DDL-LR-9.gjf
 Output=DDL-LR-9.log
 Initial command:
 /data/home/wyx/g16/l1.exe "/scr/tmp/wyx/13106/Gau-1965401.inp" -scrdir="/scr/tmp/wyx/13106/"
 Entering Link 1 = /data/home/wyx/g16/l1.exe PID=   1965402.
  
 Copyright (c) 1988,1990,1992,1993,1995,1998,2003,2009,2016,
            Gaussian, Inc.  All Rights Reserved.
  
 This is part of the Gaussian(R) 16 program.  It is based on
 the Gaussian(R) 09 system (copyright 2009, Gaussian, Inc.),
 the Gaussian(R) 03 system (copyright 2003, Gaussian, Inc.),
 the Gaussian(R) 98 system (copyright 1998, Gaussian, Inc.),
 the Gaussian(R) 94 system (copyright 1995, Gaussian, Inc.),
 the Gaussian 92(TM) system (copyright 1992, Gaussian, Inc.),
 the Gaussian 90(TM) system (copyright 1990, Gaussian, Inc.),
 the Gaussian 88(TM) system (copyright 1988, Gaussian, Inc.),
 the Gaussian 86(TM) system (copyright 1986, Carnegie Mellon
 University), and the Gaussian 82(TM) system (copyright 1983,
 Carnegie Mellon University). Gaussian is a federally registered
 trademark of Gaussian, Inc.
  
 This software contains proprietary and confidential information,
 including trade secrets, belonging to Gaussian, Inc.
  
 This software is provided under written license and may be
 used, copied, transmitted, or stored only in accord with that
 written license.
  
 The following legend is applicable only to US Government
 contracts under FAR:
  
                    RESTRICTED RIGHTS LEGEND
  
 Use, reproduction and disclosure by the US Government is
 subject to restrictions as set forth in subparagraphs (a)
 and (c) of the Commercial Computer Software - Restricted
 Rights clause in FAR 52.227-19.
  
 Gaussian, Inc.
 340 Quinnipiac St., Bldg. 40, Wallingford CT 06492
  
  
 ---------------------------------------------------------------
 Warning -- This program may not be used in any manner that
 competes with the business of Gaussian, Inc. or will provide
 assistance to any competitor of Gaussian, Inc.  The licensee
 of this program is prohibited from giving any competitor of
 Gaussian, Inc. access to this program.  By using this program,
 the user acknowledges that Gaussian, Inc. is engaged in the
 business of creating and licensing software in the field of
 computational chemistry and represents and warrants to the
 licensee that it is not a competitor of Gaussian, Inc. and that
 it will not use this program in any manner prohibited above.
 ---------------------------------------------------------------
  

 Cite this work as:
 Gaussian 16, Revision A.03,
 M. J. Frisch, G. W. Trucks, H. B. Schlegel, G. E. Scuseria, 
 M. A. Robb, J. R. Cheeseman, G. Scalmani, V. Barone, 
 G. A. Petersson, H. Nakatsuji, X. Li, M. Caricato, A. V. Marenich, 
 J. Bloino, B. G. Janesko, R. Gomperts, B. Mennucci, H. P. Hratchian, 
 J. V. Ortiz, A. F. Izmaylov, J. L. Sonnenberg, D. Williams-Young, 
 F. Ding, F. Lipparini, F. Egidi, J. Goings, B. Peng, A. Petrone, 
 T. Henderson, D. Ranasinghe, V. G. Zakrzewski, J. Gao, N. Rega, 
 G. Zheng, W. Liang, M. Hada, M. Ehara, K. Toyota, R. Fukuda, 
 J. Hasegawa, M. Ishida, T. Nakajima, Y. Honda, O. Kitao, H. Nakai, 
 T. Vreven, K. Throssell, J. A. Montgomery, Jr., J. E. Peralta, 
 F. Ogliaro, M. J. Bearpark, J. J. Heyd, E. N. Brothers, K. N. Kudin, 
 V. N. Staroverov, T. A. Keith, R. Kobayashi, J. Normand, 
 K. Raghavachari, A. P. Rendell, J. C. Burant, S. S. Iyengar, 
 J. Tomasi, M. Cossi, J. M. Millam, M. Klene, C. Adamo, R. Cammi, 
 J. W. Ochterski, R. L. Martin, K. Morokuma, O. Farkas, 
 J. B. Foresman, and D. J. Fox, Gaussian, Inc., Wallingford CT, 2016.
 
 ******************************************
 Gaussian 16:  ES64L-G16RevA.03 25-Dec-2016
                23-Jan-2026 
 ******************************************
 %nprocshared=16
 Will use up to   16 processors via shared memory.
 %mem=16GB
 %chk=DDL-LR-9.chk
 ----------------------------------------------------------------------
 #p CAM-B3LYP TZVP em=gd3bj td(nstates=6,root=1) scrf=(Solvent=TetraHyd
 roFuran)
 ----------------------------------------------------------------------
 1/38=1,172=1/1;
 2/12=2,17=6,18=5,40=1/2;
 3/5=19,7=101,11=9,25=1,30=1,70=2201,72=20,74=-40,124=41/1,2,3,8;
 4//1;
 5/5=2,38=5,53=20/2;
 8/6=1,10=1,107=1,108=6/1;
 9/8=1,41=6,42=1,70=2/14;
 6/7=2,8=2,9=2,10=2/1;
 99/5=1,9=1/99;
 Leave Link    1 at Fri Jan 23 15:53:09 2026, MaxMem=  2147483648 cpu:               0.4 elap:               0.0
 (Enter /data/home/wyx/g16/l101.exe)
 -------------------
 Title Card Required
 -------------------
 Symbolic Z-matrix:
 Charge =  0 Multiplicity = 1
 O                     2.8377   -1.56879   0.09958 
 O                    -3.42489  -1.63363  -0.02339 
 N                    -0.64856   1.51411  -0.28348 
 H                    -0.95892   2.47281  -0.3355 
 C                    -1.24271  -0.75962  -0.2132 
 C                     0.69099   1.31531  -0.06839 
 C                    -1.62338   0.56096  -0.26779 
 C                    -2.2185   -1.83629  -0.13776 
 C                     0.20812  -1.09819  -0.27883 
 H                     0.44005  -1.92595   0.39409 
 H                     0.45477  -1.51132  -1.26971 
 C                     1.1496    0.0243    0.01145 
 C                     2.51536  -0.39744   0.30032 
 C                    -3.01167   1.09603  -0.32126 
 H                    -3.01323   2.16616  -0.52007 
 H                    -3.59624   0.59847  -1.08733 
 H                    -3.53255   0.92292   0.6165 
 C                    -1.72204  -3.2554   -0.18837 
 H                    -2.55461  -3.92542  -0.36979 
 H                    -0.96874  -3.41047  -0.95516 
 H                    -1.26739  -3.53446   0.76083 
 C                     3.54771   0.53628   0.88379 
 H                     4.05845   1.08444   0.08979 
 H                     3.12795   1.25793   1.5797 
 H                     4.28932  -0.07204   1.3965 
 C                     1.46782   2.58696   0.02955 
 H                     1.60969   2.89475   1.06527 
 H                     2.44478   2.50323  -0.43057 
 H                     0.94108   3.39436  -0.47677 
 
 ITRead=  0  0  0  0  0  0  0  0  0  0  0  0  0  0  0  0  0  0  0  0
 ITRead=  0  0  0  0  0  0  0  0  0
 MicOpt= -1 -1 -1 -1 -1 -1 -1 -1 -1 -1 -1 -1 -1 -1 -1 -1 -1 -1 -1 -1
 MicOpt= -1 -1 -1 -1 -1 -1 -1 -1 -1
 NAtoms=     29 NQM=       29 NQMF=       0 NMMI=      0 NMMIF=      0
                NMic=       0 NMicF=      0.
                    Isotopes and Nuclear Properties:
 (Nuclear quadrupole moments (NQMom) in fm**2, nuclear magnetic moments (NMagM)
  in nuclear magnetons)

  Atom         1           2           3           4           5           6           7           8           9          10
 IAtWgt=          16          16          14           1          12          12          12          12          12           1
 AtmWgt=  15.9949146  15.9949146  14.0030740   1.0078250  12.0000000  12.0000000  12.0000000  12.0000000  12.0000000   1.0078250
 NucSpn=           0           0           2           1           0           0           0           0           0           1
 AtZEff=  -0.0000000  -0.0000000  -0.0000000  -0.0000000  -0.0000000  -0.0000000  -0.0000000  -0.0000000  -0.0000000  -0.0000000
 NQMom=    0.0000000   0.0000000   2.0440000   0.0000000   0.0000000   0.0000000   0.0000000   0.0000000   0.0000000   0.0000000
 NMagM=    0.0000000   0.0000000   0.4037610   2.7928460   0.0000000   0.0000000   0.0000000   0.0000000   0.0000000   2.7928460
 AtZNuc=   8.0000000   8.0000000   7.0000000   1.0000000   6.0000000   6.0000000   6.0000000   6.0000000   6.0000000   1.0000000

  Atom        11          12          13          14          15          16          17          18          19          20
 IAtWgt=           1          12          12          12           1           1           1          12           1           1
 AtmWgt=   1.0078250  12.0000000  12.0000000  12.0000000   1.0078250   1.0078250   1.0078250  12.0000000   1.0078250   1.0078250
 NucSpn=           1           0           0           0           1           1           1           0           1           1
 AtZEff=  -0.0000000  -0.0000000  -0.0000000  -0.0000000  -0.0000000  -0.0000000  -0.0000000  -0.0000000  -0.0000000  -0.0000000
 NQMom=    0.0000000   0.0000000   0.0000000   0.0000000   0.0000000   0.0000000   0.0000000   0.0000000   0.0000000   0.0000000
 NMagM=    2.7928460   0.0000000   0.0000000   0.0000000   2.7928460   2.7928460   2.7928460   0.0000000   2.7928460   2.7928460
 AtZNuc=   1.0000000   6.0000000   6.0000000   6.0000000   1.0000000   1.0000000   1.0000000   6.0000000   1.0000000   1.0000000

  Atom        21          22          23          24          25          26          27          28          29
 IAtWgt=           1          12           1           1           1          12           1           1           1
 AtmWgt=   1.0078250  12.0000000   1.0078250   1.0078250   1.0078250  12.0000000   1.0078250   1.0078250   1.0078250
 NucSpn=           1           0           1           1           1           0           1           1           1
 AtZEff=  -0.0000000  -0.0000000  -0.0000000  -0.0000000  -0.0000000  -0.0000000  -0.0000000  -0.0000000  -0.0000000
 NQMom=    0.0000000   0.0000000   0.0000000   0.0000000   0.0000000   0.0000000   0.0000000   0.0000000   0.0000000
 NMagM=    2.7928460   0.0000000   2.7928460   2.7928460   2.7928460   0.0000000   2.7928460   2.7928460   2.7928460
 AtZNuc=   1.0000000   6.0000000   1.0000000   1.0000000   1.0000000   6.0000000   1.0000000   1.0000000   1.0000000
 Leave Link  101 at Fri Jan 23 15:53:10 2026, MaxMem=  2147483648 cpu:               0.8 elap:               0.1
 (Enter /data/home/wyx/g16/l202.exe)
                          Input orientation:                          
 ---------------------------------------------------------------------
 Center     Atomic      Atomic             Coordinates (Angstroms)
 Number     Number       Type             X           Y           Z
 ---------------------------------------------------------------------
      1          8           0        2.837701   -1.568794    0.099575
      2          8           0       -3.424887   -1.633626   -0.023394
      3          7           0       -0.648557    1.514105   -0.283480
      4          1           0       -0.958923    2.472813   -0.335497
      5          6           0       -1.242714   -0.759619   -0.213198
      6          6           0        0.690990    1.315312   -0.068392
      7          6           0       -1.623381    0.560964   -0.267788
      8          6           0       -2.218501   -1.836292   -0.137758
      9          6           0        0.208122   -1.098186   -0.278830
     10          1           0        0.440051   -1.925951    0.394092
     11          1           0        0.454774   -1.511322   -1.269710
     12          6           0        1.149597    0.024304    0.011447
     13          6           0        2.515362   -0.397443    0.300322
     14          6           0       -3.011666    1.096031   -0.321259
     15          1           0       -3.013226    2.166160   -0.520073
     16          1           0       -3.596240    0.598471   -1.087329
     17          1           0       -3.532545    0.922923    0.616500
     18          6           0       -1.722039   -3.255398   -0.188370
     19          1           0       -2.554606   -3.925421   -0.369789
     20          1           0       -0.968739   -3.410473   -0.955159
     21          1           0       -1.267388   -3.534461    0.760825
     22          6           0        3.547711    0.536280    0.883789
     23          1           0        4.058453    1.084444    0.089786
     24          1           0        3.127949    1.257926    1.579702
     25          1           0        4.289324   -0.072038    1.396503
     26          6           0        1.467824    2.586963    0.029545
     27          1           0        1.609693    2.894746    1.065273
     28          1           0        2.444785    2.503228   -0.430565
     29          1           0        0.941078    3.394356   -0.476767
 ---------------------------------------------------------------------
                    Distance matrix (angstroms):
                    1          2          3          4          5
     1  O    0.000000
     2  O    6.264131   0.000000
     3  N    4.669582   4.205219   0.000000
     4  H    5.562214   4.800128   1.009036   0.000000
     5  C    4.171616   2.358345   2.351124   3.247170   0.000000
     6  C    3.599257   5.063468   1.371192   2.033068   2.839986
     7  C    4.957023   2.849803   1.363454   2.025156   1.375437
     8  C    5.068832   1.228625   3.702853   4.493776   1.455018
     9  C    2.698027   3.681127   2.749179   3.757291   1.491261
    10  H    2.441931   3.898396   3.671261   4.673174   2.135610
    11  H    2.748924   4.076767   3.367966   4.329506   2.136057
    12  C    2.322805   4.865784   2.353688   3.249834   2.527479
    13  C    1.231367   6.076142   3.742355   4.551186   3.810251
    14  C    6.441544   2.776779   2.400104   2.471737   2.565990
    15  H    6.969017   3.854157   2.464307   2.085249   3.433521
    16  H    6.892124   2.478624   3.189576   3.321724   2.854400
    17  H    6.859730   2.637612   3.078449   3.151506   2.960181
    18  C    4.870192   2.357340   4.889741   5.780691   2.541512
    19  H    5.903471   2.475824   5.764453   6.594299   3.430435
    20  H    4.358122   3.171440   4.980476   5.915837   2.766332
    21  H    4.599223   2.980432   5.192451   6.114279   2.940931
    22  C    2.355938   7.358573   4.464003   5.054361   5.082411
    23  H    2.920617   7.962480   4.741295   5.223265   5.620920
    24  H    3.203961   7.339663   4.218895   4.674020   5.136893
    25  H    2.455506   7.997732   5.451684   6.084422   5.802357
    26  C    4.376275   6.461795   2.393340   2.456702   4.313415
    27  H    4.729034   6.858451   2.970690   2.956006   4.808856
    28  H    4.125142   7.192524   3.250963   3.405171   4.928597
    29  H    5.344362   6.674414   2.469746   2.116413   4.700417
                    6          7          8          9         10
     6  C    0.000000
     7  C    2.442358   0.000000
     8  C    4.289820   2.473441   0.000000
     9  C    2.470307   2.471296   2.540315   0.000000
    10  H    3.283694   3.298573   2.712711   1.091700   0.000000
    11  H    3.080393   3.101120   2.921185   1.101527   1.714751
    12  C    1.372369   2.838201   3.850735   1.493526   2.110300
    13  C    2.529390   4.286081   4.967057   2.479882   2.579156
    14  C    3.717753   1.488788   3.043239   3.896591   4.643108
    15  H    3.827424   2.138217   4.098460   4.592520   5.431960
    16  H    4.464576   2.136639   2.954305   4.243287   4.985876
    17  H    4.296661   2.134921   3.147838   4.345007   4.893574
    18  C    5.169961   3.818463   1.504293   2.896078   2.604098
    19  H    6.171711   4.583147   2.128677   3.954010   3.680946
    20  H    5.086659   4.083301   2.169815   2.681249   2.451321
    21  H    5.295578   4.237603   2.143792   3.032070   2.374267
    22  C    3.110369   5.297823   6.318375   3.895641   3.994989
    23  H    3.379072   5.717091   6.926949   4.441261   4.716769
    24  H    2.942495   5.145300   6.411582   4.186979   4.332152
    25  H    4.125368   6.175001   6.915080   4.529451   4.388476
    26  C    1.493372   3.707914   5.760396   3.906695   4.642801
    27  H    2.150308   4.204326   6.203634   4.440104   5.005763
    28  H    2.148979   4.510971   6.376787   4.242154   4.931191
    29  H    2.133480   3.827301   6.120257   4.556242   5.414341
                   11         12         13         14         15
    11  H    0.000000
    12  C    2.117142   0.000000
    13  C    2.819885   1.458298   0.000000
    14  C    4.440051   4.309919   5.758895   0.000000
    15  H    5.110074   4.711598   6.149016   1.088442   0.000000
    16  H    4.571127   4.905094   6.345794   1.084507   1.766163
    17  H    5.038060   4.805836   6.198428   1.086588   1.762705
    18  C    2.991590   4.363790   5.134422   4.540455   5.583053
    19  H    3.961578   5.428332   6.212910   5.042444   6.110669
    20  H    2.394182   4.149623   4.774258   4.988382   5.955507
    21  H    3.343951   4.366714   4.935802   5.065063   6.098010
    22  C    4.289113   2.602701   1.509310   6.692600   6.904580
    23  H    4.644646   3.097011   2.149754   7.082067   7.179880
    24  H    4.788919   2.809826   2.179982   6.429210   6.553470
    25  H    4.887126   3.433009   2.110555   7.590754   7.874645
    26  C    4.417044   2.582405   3.174482   4.734107   4.534199
    27  H    5.118537   3.092196   3.499128   5.149253   4.941208
    28  H    4.558609   2.831599   2.992168   5.636045   5.469142
    29  H    4.993088   3.411610   4.178514   4.575004   4.140877
                   16         17         18         19         20
    16  H    0.000000
    17  H    1.735615   0.000000
    18  C    4.378706   4.624296   0.000000
    19  H    4.697389   5.043369   1.083979   0.000000
    20  H    4.795087   5.274612   1.086036   1.767146   0.000000
    21  H    5.091203   5.002003   1.088832   1.757290   1.746186
    22  C    7.411154   7.095841   6.580016   7.662670   6.273509
    23  H    7.759903   7.610964   7.233650   8.309182   6.824137
    24  H    7.263791   6.738113   6.857008   7.934673   6.708377
    25  H    8.294644   7.923382   6.984418   8.050325   6.657529
    26  C    5.553940   5.302569   6.660022   7.664891   6.547955
    27  H    6.083446   5.525585   7.106077   8.118834   7.105367
    28  H    6.368157   6.270740   7.112162   8.144024   6.848299
    29  H    5.364421   5.226521   7.169002   8.112360   7.083922
                   21         22         23         24         25
    21  H    0.000000
    22  C    6.306444   0.000000
    23  H    7.081607   1.091688   0.000000
    24  H    6.554122   1.086862   1.765158   0.000000
    25  H    6.577956   1.087620   1.760188   1.775150   0.000000
    26  C    6.744478   3.043183   2.995422   2.631604   4.110927
    27  H    7.050176   3.057975   3.197686   2.291052   4.011476
    28  H    7.187025   2.610145   2.210800   2.461435   3.656842
    29  H    7.376819   4.100518   3.921059   3.684536   5.170665
                   26         27         28         29
    26  C    0.000000
    27  H    1.089766   0.000000
    28  H    1.083128   1.757326   0.000000
    29  H    1.088897   1.753438   1.748536   0.000000
 Stoichiometry    C11H15NO2
 Framework group  C1[X(C11H15NO2)]
 Deg. of freedom    81
 Full point group                 C1      NOp   1
 Largest Abelian subgroup         C1      NOp   1
 Largest concise Abelian subgroup C1      NOp   1
                         Standard orientation:                         
 ---------------------------------------------------------------------
 Center     Atomic      Atomic             Coordinates (Angstroms)
 Number     Number       Type             X           Y           Z
 ---------------------------------------------------------------------
      1          8           0        2.286895   -2.280976   -0.230939
      2          8           0       -3.610607   -0.251655    0.352723
      3          7           0        0.021980    1.802051   -0.167339
      4          1           0        0.048851    2.810729   -0.168236
      5          6           0       -1.292521   -0.144731   -0.067799
      6          6           0        1.230888    1.157688   -0.108123
      7          6           0       -1.209925    1.228184   -0.057373
      8          6           0       -2.560885   -0.837773    0.099605
      9          6           0       -0.054766   -0.942739   -0.302328
     10          1           0       -0.048406   -1.835173    0.326426
     11          1           0       -0.062786   -1.360896   -1.321368
     12          6           0        1.233762   -0.214663   -0.101777
     13          6           0        2.399610   -1.081600    0.024123
     14          6           0       -2.334984    2.196742    0.054998
     15          1           0       -1.996292    3.215407   -0.124764
     16          1           0       -3.126985    1.963682   -0.648261
     17          1           0       -2.786385    2.157026    1.042588
     18          6           0       -2.578836   -2.336363   -0.030026
     19          1           0       -3.602130   -2.680486   -0.127290
     20          1           0       -2.003062   -2.692093   -0.879387
     21          1           0       -2.151418   -2.801042    0.857071
     22          6           0        3.739237   -0.577134    0.502593
     23          1           0        4.321879   -0.188599   -0.334874
     24          1           0        3.659291    0.204830    1.253199
     25          1           0        4.280496   -1.423997    0.918258
     26          6           0        2.396089    2.091249   -0.077622
     27          1           0        2.736919    2.278545    0.940388
     28          1           0        3.236192    1.711897   -0.646379
     29          1           0        2.123649    3.053707   -0.507910
 ---------------------------------------------------------------------
 Rotational constants (GHZ):           1.0784813           0.4905461           0.3450116
 Leave Link  202 at Fri Jan 23 15:53:10 2026, MaxMem=  2147483648 cpu:               0.1 elap:               0.0
 (Enter /data/home/wyx/g16/l301.exe)
 Standard basis: TZVP (5D, 7F)
 Ernie: Thresh=  0.10000D-02 Tol=  0.10000D-05 Strict=F.
 There are   370 symmetry adapted cartesian basis functions of A   symmetry.
 There are   356 symmetry adapted basis functions of A   symmetry.
   356 basis functions,   610 primitive gaussians,   370 cartesian basis functions
    52 alpha electrons       52 beta electrons
       nuclear repulsion energy       900.5092465749 Hartrees.
 IExCor=20419 DFT=T Ex+Corr=CAM-B3LYP ExCW=0 ScaHFX=  1.000000
 ScaDFX=  1.000000  1.000000  1.000000  0.810000 ScalE2=  1.000000  1.000000
 IRadAn=      5 IRanWt=     -1 IRanGd=            0 ICorTp=0 IEmpDi=141
 HFx  wShort=  0.000000 wLong=  0.330000 cFull=  0.190000 cShort=  0.000000 cLong=  0.460000
 DFx  wShort=  0.000000 wLong=  0.330000 cFull=  0.190000 cShort=  0.000000 cLong=  0.460000
 NAtoms=   29 NActive=   29 NUniq=   29 SFac= 1.00D+00 NAtFMM=   60 NAOKFM=F Big=F
 Integral buffers will be    131072 words long.
 Raffenetti 1 integral format.
 Two-electron integral symmetry is turned on.
 R6Disp:  Grimme-D3(BJ) Dispersion energy=       -0.0261769003 Hartrees.
 Nuclear repulsion after empirical dispersion term =      900.4830696746 Hartrees.
 ------------------------------------------------------------------------------
 Polarizable Continuum Model (PCM)
 =================================
 Model                : PCM.
 Atomic radii         : UFF (Universal Force Field).
 Polarization charges : Total charges.
 Charge compensation  : None.
 Solution method      : On-the-fly selection.
 Cavity type          : Scaled VdW (van der Waals Surface) (Alpha=1.100).
 Cavity algorithm     : GePol (No added spheres)
                        Default sphere list used, NSphG=   29.
                        Lebedev-Laikov grids with approx.  5.0 points / Ang**2.
                        Smoothing algorithm: York/Karplus (Gamma=1.0000).
                        Polarization charges: spherical gaussians, with
                                              point-specific exponents (IZeta= 3).
                        Self-potential: point-specific (ISelfS= 7).
                        Self-field    : sphere-specific E.n sum rule (ISelfD= 2).
 Solvent              : TetraHydroFuran, Eps=   7.425700 Eps(inf)=   1.974025
 ------------------------------------------------------------------------------
 GePol: Number of generator spheres                  =      29
 GePol: Total number of spheres                      =      29
 GePol: Number of exposed spheres                    =      29 (100.00%)
 GePol: Number of points                             =    2112
 GePol: Average weight of points                     =       0.13
 GePol: Minimum weight of points                     =   0.80D-10
 GePol: Maximum weight of points                     =    0.20577
 GePol: Number of points with low weight             =     129
 GePol: Fraction of low-weight points (<1% of avg)   =       6.11%
 GePol: Cavity surface area                          =    268.463 Ang**2
 GePol: Cavity volume                                =    286.507 Ang**3
 Leave Link  301 at Fri Jan 23 15:53:10 2026, MaxMem=  2147483648 cpu:               0.6 elap:               0.0
 (Enter /data/home/wyx/g16/l302.exe)
 NPDir=0 NMtPBC=     1 NCelOv=     1 NCel=       1 NClECP=     1 NCelD=      1
         NCelK=      1 NCelE2=     1 NClLst=     1 CellRange=     0.0.
 One-electron integrals computed using PRISM.
 One-electron integral symmetry used in STVInt
 NBasis=   356 RedAO= T EigKep=  4.64D-05  NBF=   356
 NBsUse=   356 1.00D-06 EigRej= -1.00D+00 NBFU=   356
 Precomputing XC quadrature grid using
 IXCGrd= 4 IRadAn=           5 IRanWt=          -1 IRanGd=           0 AccXCQ= 0.00D+00.
 Generated NRdTot=       0 NPtTot=           0 NUsed=           0 NTot=          32
 NSgBfM=   366   366   366   366   366 MxSgAt=    29 MxSgA2=    29.
 Leave Link  302 at Fri Jan 23 15:53:11 2026, MaxMem=  2147483648 cpu:               3.1 elap:               0.2
 (Enter /data/home/wyx/g16/l303.exe)
 DipDrv:  MaxL=1.
 Leave Link  303 at Fri Jan 23 15:53:11 2026, MaxMem=  2147483648 cpu:               0.6 elap:               0.0
 (Enter /data/home/wyx/g16/l308.exe)
 Leave Link  308 at Fri Jan 23 15:53:11 2026, MaxMem=  2147483648 cpu:               0.7 elap:               0.1
 (Enter /data/home/wyx/g16/l401.exe)
 ExpMin= 9.52D-02 ExpMax= 2.70D+04 ExpMxC= 9.22D+02 IAcc=3 IRadAn=         5 AccDes= 0.00D+00
 Harris functional with IExCor=20419 and IRadAn=       5 diagonalized for initial guess.
 HarFok:  IExCor=20419 AccDes= 0.00D+00 IRadAn=         5 IDoV= 1 UseB2=F ITyADJ=14
 ICtDFT=  3500011 ScaDFX=  1.000000  1.000000  1.000000  1.000000
 FoFCou: FMM=F IPFlag=           0 FMFlag=      100000 FMFlg1=           0
         NFxFlg=           0 DoJE=T BraDBF=F KetDBF=T FulRan=T
         wScrn=  0.000000 ICntrl=       500 IOpCl=  0 I1Cent=   200000004 NGrid=           0
         NMat0=    1 NMatS0=      1 NMatT0=    0 NMatD0=    1 NMtDS0=    0 NMtDT0=    0
 Petite list used in FoFCou.
 Harris En= -608.711285248917    
 JPrj=0 DoOrth=F DoCkMO=F.
 Leave Link  401 at Fri Jan 23 15:53:12 2026, MaxMem=  2147483648 cpu:              11.8 elap:               0.8
 (Enter /data/home/wyx/g16/l502.exe)
 Integral symmetry usage will be decided dynamically.
 Closed shell SCF:
 Using DIIS extrapolation, IDIIS=  1040.
 NGot=  2147483648 LenX=  2147200095 LenY=  2147062754
 Requested convergence on RMS density matrix=1.00D-08 within 128 cycles.
 Requested convergence on MAX density matrix=1.00D-06.
 Requested convergence on             energy=1.00D-06.
 No special actions if energy rises.
 Fock matrices will be formed incrementally for  20 cycles.

 Cycle   1  Pass 1  IDiag  1:
 FoFJK:  IHMeth= 1 ICntrl=       0 DoSepK=T KAlg= 0 I1Cent=           0 FoldK=F
 IRaf=         1 NMat=       1 IRICut=       1 DoRegI=T DoRafI=F ISym2E= 0 IDoP0=0 IntGTp=1.
 FoFCou: FMM=F IPFlag=           0 FMFlag=      100000 FMFlg1=           0
         NFxFlg=           0 DoJE=T BraDBF=F KetDBF=F FulRan=T
         wScrn=  0.000000 ICntrl=       500 IOpCl=  0 I1Cent=           0 NGrid=           0
         NMat0=    1 NMatS0=      1 NMatT0=    0 NMatD0=    1 NMtDS0=    0 NMtDT0=    0
 Symmetry not used in FoFCou.
 Inv3:  Mode=1 IEnd=    13381632.
 Iteration    1 A*A^-1 deviation from unit magnitude is 3.11D-15 for    865.
 Iteration    1 A*A^-1 deviation from orthogonality  is 1.75D-15 for    815    322.
 Iteration    1 A^-1*A deviation from unit magnitude is 2.66D-15 for    865.
 Iteration    1 A^-1*A deviation from orthogonality  is 1.76D-15 for   1379   1350.
 E= -633.125394019890    
 DIIS: error= 4.14D-02 at cycle   1 NSaved=   1.
 NSaved= 1 IEnMin= 1 EnMin= -633.125394019890     IErMin= 1 ErrMin= 4.14D-02
 ErrMax= 4.14D-02  0.00D+00 EMaxC= 1.00D-01 BMatC= 1.10D+00 BMatP= 1.10D+00
 IDIUse=3 WtCom= 5.86D-01 WtEn= 4.14D-01
 Coeff-Com:  0.100D+01
 Coeff-En:   0.100D+01
 Coeff:      0.100D+01
 Gap=     0.217 Goal=   None    Shift=    0.000
 GapD=    0.217 DampG=1.000 DampE=0.500 DampFc=0.5000 IDamp=-1.
 Damping current iteration by 5.00D-01
 RMSDP=4.03D-03 MaxDP=1.76D-01              OVMax= 1.55D-01

 Cycle   2  Pass 1  IDiag  1:
 RMSU=  1.79D-03    CP:  9.32D-01
 E= -633.221961085294     Delta-E=       -0.096567065404 Rises=F Damp=T
 DIIS: error= 1.89D-02 at cycle   2 NSaved=   2.
 NSaved= 2 IEnMin= 2 EnMin= -633.221961085294     IErMin= 2 ErrMin= 1.89D-02
 ErrMax= 1.89D-02  0.00D+00 EMaxC= 1.00D-01 BMatC= 2.24D-01 BMatP= 1.10D+00
 IDIUse=3 WtCom= 8.11D-01 WtEn= 1.89D-01
 Coeff-Com: -0.585D+00 0.159D+01
 Coeff-En:   0.000D+00 0.100D+01
 Coeff:     -0.475D+00 0.147D+01
 Gap=     0.236 Goal=   None    Shift=    0.000
 RMSDP=1.58D-03 MaxDP=5.07D-02 DE=-9.66D-02 OVMax= 1.47D-01

 Cycle   3  Pass 1  IDiag  1:
 RMSU=  1.46D-03    CP:  9.03D-01  1.26D+00
 E= -633.268689933314     Delta-E=       -0.046728848020 Rises=F Damp=F
 DIIS: error= 1.33D-02 at cycle   3 NSaved=   3.
 NSaved= 3 IEnMin= 3 EnMin= -633.268689933314     IErMin= 3 ErrMin= 1.33D-02
 ErrMax= 1.33D-02  0.00D+00 EMaxC= 1.00D-01 BMatC= 6.79D-02 BMatP= 2.24D-01
 IDIUse=3 WtCom= 8.67D-01 WtEn= 1.33D-01
 Coeff-Com: -0.365D+00 0.801D+00 0.564D+00
 Coeff-En:   0.000D+00 0.000D+00 0.100D+01
 Coeff:     -0.317D+00 0.695D+00 0.622D+00
 Gap=     0.232 Goal=   None    Shift=    0.000
 RMSDP=1.35D-03 MaxDP=6.88D-02 DE=-4.67D-02 OVMax= 8.48D-02

 Cycle   4  Pass 1  IDiag  1:
 RMSU=  5.27D-04    CP:  8.58D-01  1.73D+00  5.42D-01
 E= -633.320221041722     Delta-E=       -0.051531108408 Rises=F Damp=F
 DIIS: error= 4.00D-03 at cycle   4 NSaved=   4.
 NSaved= 4 IEnMin= 4 EnMin= -633.320221041722     IErMin= 4 ErrMin= 4.00D-03
 ErrMax= 4.00D-03  0.00D+00 EMaxC= 1.00D-01 BMatC= 7.68D-03 BMatP= 6.79D-02
 IDIUse=3 WtCom= 9.60D-01 WtEn= 4.00D-02
 Coeff-Com: -0.165D+00 0.358D+00 0.361D+00 0.446D+00
 Coeff-En:   0.000D+00 0.000D+00 0.339D-01 0.966D+00
 Coeff:     -0.159D+00 0.344D+00 0.348D+00 0.467D+00
 Gap=     0.228 Goal=   None    Shift=    0.000
 RMSDP=3.37D-04 MaxDP=2.13D-02 DE=-5.15D-02 OVMax= 1.88D-02

 Cycle   5  Pass 1  IDiag  1:
 RMSU=  1.03D-04    CP:  8.68D-01  1.67D+00  6.81D-01  6.68D-01
 E= -633.326287218107     Delta-E=       -0.006066176386 Rises=F Damp=F
 DIIS: error= 4.31D-04 at cycle   5 NSaved=   5.
 NSaved= 5 IEnMin= 5 EnMin= -633.326287218107     IErMin= 5 ErrMin= 4.31D-04
 ErrMax= 4.31D-04  0.00D+00 EMaxC= 1.00D-01 BMatC= 6.54D-05 BMatP= 7.68D-03
 IDIUse=3 WtCom= 9.96D-01 WtEn= 4.31D-03
 Coeff-Com: -0.228D-01 0.486D-01 0.622D-01 0.135D+00 0.777D+00
 Coeff-En:   0.000D+00 0.000D+00 0.000D+00 0.000D+00 0.100D+01
 Coeff:     -0.227D-01 0.483D-01 0.619D-01 0.134D+00 0.778D+00
 Gap=     0.228 Goal=   None    Shift=    0.000
 RMSDP=1.21D-04 MaxDP=7.20D-03 DE=-6.07D-03 OVMax= 1.89D-03

 Cycle   6  Pass 1  IDiag  1:
 RMSU=  5.09D-05    CP:  8.63D-01  1.70D+00  6.89D-01  7.90D-01  1.15D+00
 E= -633.326326754322     Delta-E=       -0.000039536215 Rises=F Damp=F
 DIIS: error= 3.94D-04 at cycle   6 NSaved=   6.
 NSaved= 6 IEnMin= 6 EnMin= -633.326326754322     IErMin= 6 ErrMin= 3.94D-04
 ErrMax= 3.94D-04  0.00D+00 EMaxC= 1.00D-01 BMatC= 2.67D-05 BMatP= 6.54D-05
 IDIUse=3 WtCom= 9.96D-01 WtEn= 3.94D-03
 Coeff-Com:  0.171D-01-0.374D-01-0.294D-01-0.637D-02 0.464D+00 0.592D+00
 Coeff-En:   0.000D+00 0.000D+00 0.000D+00 0.000D+00 0.151D+00 0.849D+00
 Coeff:      0.171D-01-0.372D-01-0.293D-01-0.635D-02 0.462D+00 0.593D+00
 Gap=     0.229 Goal=   None    Shift=    0.000
 RMSDP=2.50D-05 MaxDP=1.15D-03 DE=-3.95D-05 OVMax= 2.71D-03

 Cycle   7  Pass 1  IDiag  1:
 RMSU=  1.78D-05    CP:  8.63D-01  1.70D+00  6.91D-01  7.85D-01  1.24D+00
                    CP:  7.65D-01
 E= -633.326350130606     Delta-E=       -0.000023376284 Rises=F Damp=F
 DIIS: error= 4.37D-05 at cycle   7 NSaved=   7.
 NSaved= 7 IEnMin= 7 EnMin= -633.326350130606     IErMin= 7 ErrMin= 4.37D-05
 ErrMax= 4.37D-05  0.00D+00 EMaxC= 1.00D-01 BMatC= 9.21D-07 BMatP= 2.67D-05
 IDIUse=1 WtCom= 1.00D+00 WtEn= 0.00D+00
 Coeff-Com:  0.396D-02-0.855D-02-0.764D-02-0.103D-01 0.104D-01 0.152D+00
 Coeff-Com:  0.860D+00
 Coeff:      0.396D-02-0.855D-02-0.764D-02-0.103D-01 0.104D-01 0.152D+00
 Coeff:      0.860D+00
 Gap=     0.229 Goal=   None    Shift=    0.000
 RMSDP=1.65D-05 MaxDP=8.23D-04 DE=-2.34D-05 OVMax= 5.77D-04

 Cycle   8  Pass 1  IDiag  1:
 RMSU=  4.78D-06    CP:  8.63D-01  1.70D+00  6.93D-01  8.01D-01  1.30D+00
                    CP:  8.97D-01  1.04D+00
 E= -633.326351456908     Delta-E=       -0.000001326301 Rises=F Damp=F
 DIIS: error= 2.54D-05 at cycle   8 NSaved=   8.
 NSaved= 8 IEnMin= 8 EnMin= -633.326351456908     IErMin= 8 ErrMin= 2.54D-05
 ErrMax= 2.54D-05  0.00D+00 EMaxC= 1.00D-01 BMatC= 1.21D-07 BMatP= 9.21D-07
 IDIUse=1 WtCom= 1.00D+00 WtEn= 0.00D+00
 Coeff-Com: -0.408D-03 0.950D-03 0.331D-03-0.447D-02-0.626D-01-0.686D-02
 Coeff-Com:  0.306D+00 0.767D+00
 Coeff:     -0.408D-03 0.950D-03 0.331D-03-0.447D-02-0.626D-01-0.686D-02
 Coeff:      0.306D+00 0.767D+00
 Gap=     0.229 Goal=   None    Shift=    0.000
 RMSDP=4.42D-06 MaxDP=2.45D-04 DE=-1.33D-06 OVMax= 3.89D-04

 Cycle   9  Pass 1  IDiag  1:
 RMSU=  1.38D-06    CP:  8.63D-01  1.70D+00  6.93D-01  8.05D-01  1.31D+00
                    CP:  9.27D-01  1.14D+00  1.23D+00
 E= -633.326351658688     Delta-E=       -0.000000201780 Rises=F Damp=F
 DIIS: error= 5.14D-06 at cycle   9 NSaved=   9.
 NSaved= 9 IEnMin= 9 EnMin= -633.326351658688     IErMin= 9 ErrMin= 5.14D-06
 ErrMax= 5.14D-06  0.00D+00 EMaxC= 1.00D-01 BMatC= 1.79D-08 BMatP= 1.21D-07
 IDIUse=1 WtCom= 1.00D+00 WtEn= 0.00D+00
 Coeff-Com: -0.866D-03 0.189D-02 0.160D-02 0.223D-03-0.242D-01-0.199D-01
 Coeff-Com: -0.332D-01 0.275D+00 0.799D+00
 Coeff:     -0.866D-03 0.189D-02 0.160D-02 0.223D-03-0.242D-01-0.199D-01
 Coeff:     -0.332D-01 0.275D+00 0.799D+00
 Gap=     0.229 Goal=   None    Shift=    0.000
 RMSDP=2.02D-06 MaxDP=1.14D-04 DE=-2.02D-07 OVMax= 1.18D-04

 Cycle  10  Pass 1  IDiag  1:
 RMSU=  8.78D-07    CP:  8.63D-01  1.70D+00  6.93D-01  8.07D-01  1.32D+00
                    CP:  9.46D-01  1.17D+00  1.35D+00  1.07D+00
 E= -633.326351685563     Delta-E=       -0.000000026876 Rises=F Damp=F
 DIIS: error= 1.98D-06 at cycle  10 NSaved=  10.
 NSaved=10 IEnMin=10 EnMin= -633.326351685563     IErMin=10 ErrMin= 1.98D-06
 ErrMax= 1.98D-06  0.00D+00 EMaxC= 1.00D-01 BMatC= 1.54D-09 BMatP= 1.79D-08
 IDIUse=1 WtCom= 1.00D+00 WtEn= 0.00D+00
 Coeff-Com: -0.265D-03 0.572D-03 0.526D-03 0.322D-03-0.433D-02-0.529D-02
 Coeff-Com: -0.375D-01 0.424D-01 0.283D+00 0.721D+00
 Coeff:     -0.265D-03 0.572D-03 0.526D-03 0.322D-03-0.433D-02-0.529D-02
 Coeff:     -0.375D-01 0.424D-01 0.283D+00 0.721D+00
 Gap=     0.229 Goal=   None    Shift=    0.000
 RMSDP=4.36D-07 MaxDP=2.03D-05 DE=-2.69D-08 OVMax= 2.98D-05

 Cycle  11  Pass 1  IDiag  1:
 RMSU=  2.78D-07    CP:  8.63D-01  1.70D+00  6.93D-01  8.07D-01  1.32D+00
                    CP:  9.48D-01  1.17D+00  1.38D+00  1.19D+00  8.61D-01
 E= -633.326351687267     Delta-E=       -0.000000001704 Rises=F Damp=F
 DIIS: error= 1.30D-06 at cycle  11 NSaved=  11.
 NSaved=11 IEnMin=11 EnMin= -633.326351687267     IErMin=11 ErrMin= 1.30D-06
 ErrMax= 1.30D-06  0.00D+00 EMaxC= 1.00D-01 BMatC= 4.95D-10 BMatP= 1.54D-09
 IDIUse=1 WtCom= 1.00D+00 WtEn= 0.00D+00
 Coeff-Com:  0.117D-04-0.285D-04 0.224D-05 0.129D-03 0.206D-02 0.107D-02
 Coeff-Com: -0.158D-01-0.273D-01 0.354D-02 0.408D+00 0.629D+00
 Coeff:      0.117D-04-0.285D-04 0.224D-05 0.129D-03 0.206D-02 0.107D-02
 Coeff:     -0.158D-01-0.273D-01 0.354D-02 0.408D+00 0.629D+00
 Gap=     0.229 Goal=   None    Shift=    0.000
 RMSDP=1.97D-07 MaxDP=1.27D-05 DE=-1.70D-09 OVMax= 1.12D-05

 Cycle  12  Pass 1  IDiag  1:
 RMSU=  9.25D-08    CP:  8.63D-01  1.70D+00  6.93D-01  8.07D-01  1.32D+00
                    CP:  9.49D-01  1.17D+00  1.40D+00  1.20D+00  9.79D-01
                    CP:  8.19D-01
 E= -633.326351687718     Delta-E=       -0.000000000450 Rises=F Damp=F
 DIIS: error= 2.71D-07 at cycle  12 NSaved=  12.
 NSaved=12 IEnMin=12 EnMin= -633.326351687718     IErMin=12 ErrMin= 2.71D-07
 ErrMax= 2.71D-07  0.00D+00 EMaxC= 1.00D-01 BMatC= 3.45D-11 BMatP= 4.95D-10
 IDIUse=1 WtCom= 1.00D+00 WtEn= 0.00D+00
 Coeff-Com:  0.233D-04-0.519D-04-0.342D-04 0.371D-04 0.128D-02 0.921D-03
 Coeff-Com: -0.418D-02-0.151D-01-0.248D-01 0.126D+00 0.289D+00 0.627D+00
 Coeff:      0.233D-04-0.519D-04-0.342D-04 0.371D-04 0.128D-02 0.921D-03
 Coeff:     -0.418D-02-0.151D-01-0.248D-01 0.126D+00 0.289D+00 0.627D+00
 Gap=     0.229 Goal=   None    Shift=    0.000
 RMSDP=4.05D-08 MaxDP=1.55D-06 DE=-4.50D-10 OVMax= 1.89D-06

 Cycle  13  Pass 1  IDiag  1:
 RMSU=  2.35D-08    CP:  8.63D-01  1.70D+00  6.93D-01  8.07D-01  1.32D+00
                    CP:  9.49D-01  1.17D+00  1.40D+00  1.21D+00  9.86D-01
                    CP:  9.02D-01  9.90D-01
 E= -633.326351687758     Delta-E=       -0.000000000040 Rises=F Damp=F
 DIIS: error= 6.54D-08 at cycle  13 NSaved=  13.
 NSaved=13 IEnMin=13 EnMin= -633.326351687758     IErMin=13 ErrMin= 6.54D-08
 ErrMax= 6.54D-08  0.00D+00 EMaxC= 1.00D-01 BMatC= 2.30D-12 BMatP= 3.45D-11
 IDIUse=1 WtCom= 1.00D+00 WtEn= 0.00D+00
 Coeff-Com:  0.608D-05-0.130D-04-0.124D-04-0.109D-04 0.892D-04 0.120D-03
 Coeff-Com:  0.103D-02-0.876D-04-0.966D-02-0.235D-01-0.585D-02 0.185D+00
 Coeff-Com:  0.853D+00
 Coeff:      0.608D-05-0.130D-04-0.124D-04-0.109D-04 0.892D-04 0.120D-03
 Coeff:      0.103D-02-0.876D-04-0.966D-02-0.235D-01-0.585D-02 0.185D+00
 Coeff:      0.853D+00
 Gap=     0.229 Goal=   None    Shift=    0.000
 RMSDP=1.69D-08 MaxDP=1.02D-06 DE=-4.00D-11 OVMax= 1.16D-06

 Cycle  14  Pass 1  IDiag  1:
 RMSU=  1.00D-08    CP:  8.63D-01  1.70D+00  6.93D-01  8.07D-01  1.32D+00
                    CP:  9.49D-01  1.17D+00  1.40D+00  1.21D+00  9.91D-01
                    CP:  9.31D-01  1.09D+00  1.04D+00
 E= -633.326351687764     Delta-E=       -0.000000000007 Rises=F Damp=F
 DIIS: error= 3.03D-08 at cycle  14 NSaved=  14.
 NSaved=14 IEnMin=14 EnMin= -633.326351687764     IErMin=14 ErrMin= 3.03D-08
 ErrMax= 3.03D-08  0.00D+00 EMaxC= 1.00D-01 BMatC= 1.91D-13 BMatP= 2.30D-12
 IDIUse=1 WtCom= 1.00D+00 WtEn= 0.00D+00
 Coeff-Com:  0.524D-07 0.247D-07-0.812D-06-0.532D-05-0.580D-04-0.194D-04
 Coeff-Com:  0.512D-03 0.112D-02-0.735D-03-0.135D-01-0.187D-01-0.734D-03
 Coeff-Com:  0.197D+00 0.835D+00
 Coeff:      0.524D-07 0.247D-07-0.812D-06-0.532D-05-0.580D-04-0.194D-04
 Coeff:      0.512D-03 0.112D-02-0.735D-03-0.135D-01-0.187D-01-0.734D-03
 Coeff:      0.197D+00 0.835D+00
 Gap=     0.229 Goal=   None    Shift=    0.000
 RMSDP=5.24D-09 MaxDP=3.75D-07 DE=-6.82D-12 OVMax= 5.32D-07

 Error on total polarization charges =  0.01418
 SCF Done:  E(RCAM-B3LYP) =  -633.326351688     A.U. after   14 cycles
            NFock= 14  Conv=0.52D-08     -V/T= 2.0041
 KE= 6.307303185138D+02 PE=-3.277026389537D+03 EE= 1.112486649661D+03
 Leave Link  502 at Fri Jan 23 15:54:10 2026, MaxMem=  2147483648 cpu:             883.1 elap:              55.7
 (Enter /data/home/wyx/g16/l801.exe)
 DoSCS=F DFT=T ScalE2(SS,OS)=  1.000000  1.000000
 ExpMin= 9.52D-02 ExpMax= 2.70D+04 ExpMxC= 9.22D+02 IAcc=3 IRadAn=         5 AccDes= 0.00D+00
 HarFok:  IExCor=  205 AccDes= 0.00D+00 IRadAn=         5 IDoV=-2 UseB2=F ITyADJ=14
 ICtDFT= 12500011 ScaDFX=  1.000000  1.000000  1.000000  1.000000
 Largest valence mixing into a core orbital is  5.61D-05
 Largest core mixing into a valence orbital is  1.18D-05
 Range of M.O.s used for correlation:    15   356
 NBasis=   356 NAE=    52 NBE=    52 NFC=    14 NFV=     0
 NROrb=    342 NOA=    38 NOB=    38 NVA=   304 NVB=   304

 **** Warning!!: The largest alpha MO coefficient is  0.59284825D+02

 Leave Link  801 at Fri Jan 23 15:54:10 2026, MaxMem=  2147483648 cpu:               1.0 elap:               0.1
 (Enter /data/home/wyx/g16/l914.exe)
 RHF ground state
 Two-electron integrals replicated using symmetry.
 MDV=  2147483648 DFT=T DoStab=F Mixed=T DoRPA=T DoScal=F NonHer=T
 NEqPCM:  Using non-equilibrium solvation (IEInf=1, Eps=   7.4257, EpsInf=   1.9740)
 Inv3:  Mode=1 IEnd=    13381632.
 Iteration    1 A*A^-1 deviation from unit magnitude is 3.11D-15 for    859.
 Iteration    1 A*A^-1 deviation from orthogonality  is 1.69D-15 for   1709    532.
 Iteration    1 A^-1*A deviation from unit magnitude is 3.55D-15 for    859.
 Iteration    1 A^-1*A deviation from orthogonality  is 1.64D-15 for   1781    244.
 Making orbital integer symmetry assigments:
 Orbital symmetries:
       Occupied  (A) (A) (A) (A) (A) (A) (A) (A) (A) (A) (A) (A)
                 (A) (A) (A) (A) (A) (A) (A) (A) (A) (A) (A) (A)
                 (A) (A) (A) (A) (A) (A) (A) (A) (A) (A) (A) (A)
                 (A) (A) (A) (A) (A) (A) (A) (A) (A) (A) (A) (A)
                 (A) (A) (A) (A)
       Virtual   (A) (A) (A) (A) (A) (A) (A) (A) (A) (A) (A) (A)
                 (A) (A) (A) (A) (A) (A) (A) (A) (A) (A) (A) (A)
                 (A) (A) (A) (A) (A) (A) (A) (A) (A) (A) (A) (A)
                 (A) (A) (A) (A) (A) (A) (A) (A) (A) (A) (A) (A)
                 (A) (A) (A) (A) (A) (A) (A) (A) (A) (A) (A) (A)
                 (A) (A) (A) (A) (A) (A) (A) (A) (A) (A) (A) (A)
                 (A) (A) (A) (A) (A) (A) (A) (A) (A) (A) (A) (A)
                 (A) (A) (A) (A) (A) (A) (A) (A) (A) (A) (A) (A)
                 (A) (A) (A) (A) (A) (A) (A) (A) (A) (A) (A) (A)
                 (A) (A) (A) (A) (A) (A) (A) (A) (A) (A) (A) (A)
                 (A) (A) (A) (A) (A) (A) (A) (A) (A) (A) (A) (A)
                 (A) (A) (A) (A) (A) (A) (A) (A) (A) (A) (A) (A)
                 (A) (A) (A) (A) (A) (A) (A) (A) (A) (A) (A) (A)
                 (A) (A) (A) (A) (A) (A) (A) (A) (A) (A) (A) (A)
                 (A) (A) (A) (A) (A) (A) (A) (A) (A) (A) (A) (A)
                 (A) (A) (A) (A) (A) (A) (A) (A) (A) (A) (A) (A)
                 (A) (A) (A) (A) (A) (A) (A) (A) (A) (A) (A) (A)
                 (A) (A) (A) (A) (A) (A) (A) (A) (A) (A) (A) (A)
                 (A) (A) (A) (A) (A) (A) (A) (A) (A) (A) (A) (A)
                 (A) (A) (A) (A) (A) (A) (A) (A) (A) (A) (A) (A)
                 (A) (A) (A) (A) (A) (A) (A) (A) (A) (A) (A) (A)
                 (A) (A) (A) (A) (A) (A) (A) (A) (A) (A) (A) (A)
                 (A) (A) (A) (A) (A) (A) (A) (A) (A) (A) (A) (A)
                 (A) (A) (A) (A) (A) (A) (A) (A) (A) (A) (A) (A)
                 (A) (A) (A) (A) (A) (A) (A) (A) (A) (A) (A) (A)
                 (A) (A) (A) (A)
    24 initial guesses have been made.
 Convergence on wavefunction:    0.001000000000000
 Davidson Disk Diagonalization:  ConvIn= 1.00D-03 SkipCon=T Conv= 1.00D-03.
 Max sub-space:  2000 roots to seek:    24 dimension of matrix:        23104
 Iteration     1 Dimension    24 NMult     0 NNew     24
 CISAX will form    24 AO SS matrices at one time.
 NMat=    24 NSing=    24 JSym2X= 0.
 FoFJK:  IHMeth= 1 ICntrl=       0 DoSepK=T KAlg= 0 I1Cent=           0 FoldK=F
 IRaf=         1 NMat=      48 IRICut=       1 DoRegI=T DoRafI=F ISym2E= 0 IDoP0=3 IntGTp=3.
 New state      2 was old state      3
 New state      3 was old state      4
 New state      4 was old state      2
 New state      5 was old state      6
 New state      6 was old state      5
 Excitation Energies [eV] at current iteration:
 Root      1 :     3.725982033742188
 Root      2 :     4.254463506474517
 Root      3 :     4.453795160097616
 Root      4 :     5.434147426882853
 Root      5 :     6.056493785187167
 Root      6 :     6.352614125456762
 Root      7 :     6.601690650838243
 Root      8 :     6.743661688852590
 Root      9 :     6.939395459758765
 Root     10 :     7.000460961878800
 Root     11 :     7.207698486398398
 Root     12 :     7.351122091832868
 Root     13 :     7.466365027964200
 Root     14 :     7.539743360591185
 Root     15 :     7.757231950628232
 Root     16 :     7.877919622322596
 Root     17 :     8.078049653930984
 Root     18 :     8.143794581809090
 Root     19 :     8.258292157150345
 Root     20 :     8.480072262847376
 Root     21 :     8.629354601051535
 Root     22 :     8.799888188058395
 Root     23 :     8.966284132663402
 Root     24 :     9.128964360721250
 Iteration     2 Dimension    36 NMult    24 NNew     12
 CISAX will form    12 AO SS matrices at one time.
 NMat=    12 NSing=    12 JSym2X= 0.
 Root      1 not converged, maximum delta is    0.043656637440813
 Root      2 not converged, maximum delta is    0.074994108889846
 Root      3 not converged, maximum delta is    0.092192547792552
 Root      4 not converged, maximum delta is    0.263772285358082
 New state      5 was old state      6
 Root      5 not converged, maximum delta is    0.248357813091022
 New state      6 was old state      5
 Root      6 not converged, maximum delta is    0.147907702726941
 Excitation Energies [eV] at current iteration:
 Root      1 :     3.278652831364191   Change is   -0.447329202377998
 Root      2 :     4.028826426439351   Change is   -0.225637080035167
 Root      3 :     4.186415415433152   Change is   -0.267379744664464
 Root      4 :     5.085619663676687   Change is   -0.348527763206166
 Root      5 :     5.541943480896783   Change is   -0.810670644559979
 Root      6 :     5.928852092928686   Change is   -0.127641692258481
 Iteration     3 Dimension    48 NMult    36 NNew     12
 CISAX will form    12 AO SS matrices at one time.
 NMat=    12 NSing=    12 JSym2X= 0.
 Root      1 not converged, maximum delta is    0.008238058695330
 Root      2 not converged, maximum delta is    0.015107923936703
 Root      3 not converged, maximum delta is    0.013727456604029
 Root      4 not converged, maximum delta is    0.019711443979402
 Root      5 not converged, maximum delta is    0.020618432969436
 Root      6 not converged, maximum delta is    0.019001296618698
 Excitation Energies [eV] at current iteration:
 Root      1 :     3.261646641988383   Change is   -0.017006189375808
 Root      2 :     4.015647996534933   Change is   -0.013178429904417
 Root      3 :     4.172319664684359   Change is   -0.014095750748793
 Root      4 :     5.064857246272600   Change is   -0.020762417404088
 Root      5 :     5.514497194038861   Change is   -0.027446286857922
 Root      6 :     5.919460172641066   Change is   -0.009391920287621
 Iteration     4 Dimension    60 NMult    48 NNew     12
 CISAX will form    12 AO SS matrices at one time.
 NMat=    12 NSing=    12 JSym2X= 0.
 Root      1 not converged, maximum delta is    0.002418468959312
 Root      2 not converged, maximum delta is    0.001885560638966
 Root      3 not converged, maximum delta is    0.002279863203631
 Root      4 not converged, maximum delta is    0.002502534538437
 Root      5 not converged, maximum delta is    0.003033723352064
 Root      6 not converged, maximum delta is    0.004079747963512
 Excitation Energies [eV] at current iteration:
 Root      1 :     3.260239711022900   Change is   -0.001406930965482
 Root      2 :     4.014948669885465   Change is   -0.000699326649469
 Root      3 :     4.171420892493538   Change is   -0.000898772190821
 Root      4 :     5.063142097922195   Change is   -0.001715148350405
 Root      5 :     5.512028076239770   Change is   -0.002469117799091
 Root      6 :     5.918767256763795   Change is   -0.000692915877271
 Iteration     5 Dimension    72 NMult    60 NNew     12
 CISAX will form    12 AO SS matrices at one time.
 NMat=    12 NSing=    12 JSym2X= 0.
 Root      1 has converged.
 Root      2 has converged.
 Root      3 has converged.
 Root      4 has converged.
 Root      5 not converged, maximum delta is    0.001119522220076
 Root      6 not converged, maximum delta is    0.001071515422960
 Excitation Energies [eV] at current iteration:
 Root      1 :     3.260168039167411   Change is   -0.000071671855489
 Root      2 :     4.014900556534208   Change is   -0.000048113351257
 Root      3 :     4.171372760216001   Change is   -0.000048132277537
 Root      4 :     5.063011748984015   Change is   -0.000130348938180
 Root      5 :     5.511801935604121   Change is   -0.000226140635649
 Root      6 :     5.918715600320015   Change is   -0.000051656443780
 Iteration     6 Dimension    76 NMult    72 NNew      4
 CISAX will form     4 AO SS matrices at one time.
 NMat=     4 NSing=     4 JSym2X= 0.
 Root      1 has converged.
 Root      2 has converged.
 Root      3 has converged.
 Root      4 has converged.
 Root      5 has converged.
 Root      6 has converged.
 Excitation Energies [eV] at current iteration:
 Root      1 :     3.260167930652248   Change is   -0.000000108515163
 Root      2 :     4.014900494019217   Change is   -0.000000062514990
 Root      3 :     4.171372699427468   Change is   -0.000000060788534
 Root      4 :     5.063008640783527   Change is   -0.000003108200488
 Root      5 :     5.511784754346025   Change is   -0.000017181258097
 Root      6 :     5.918712076664088   Change is   -0.000003523655928
 Convergence achieved on expansion vectors.
 ***********************************************************************
 Excited states from <AA,BB:AA,BB> singles matrix:
 ***********************************************************************
 
 1PDM for each excited state written to RWF  633
 Ground to excited state transition densities written to RWF  633
 Ground to excited state transition electric dipole moments (Au):
       state          X           Y           Z        Dip. S.      Osc.
         1        -1.4790      0.1477      0.0408      2.2110      0.1766
         2        -0.0796     -0.0226      0.0388      0.0083      0.0008
         3        -0.0399      0.1021     -0.0283      0.0128      0.0013
         4        -0.1588     -1.3075      0.0876      1.7425      0.2161
         5        -0.0706     -1.5190      0.0351      2.3134      0.3124
         6         0.0244      0.2177      0.0687      0.0527      0.0076
 Ground to excited state transition velocity dipole moments (Au):
       state          X           Y           Z        Dip. S.      Osc.
         1         0.1697     -0.0132     -0.0055      0.0290      0.1614
         2         0.0112      0.0037     -0.0027      0.0001      0.0007
         3         0.0058     -0.0140      0.0009      0.0002      0.0010
         4         0.0330      0.2311     -0.0122      0.0547      0.1959
         5         0.0154      0.3007     -0.0076      0.0907      0.2986
         6        -0.0063     -0.0444     -0.0344      0.0032      0.0098
 Ground to excited state transition magnetic dipole moments (Au):
       state          X           Y           Z
         1        -0.0555      0.0443     -1.4631
         2         0.7934     -0.1198     -0.2312
         3         0.1805     -0.9823     -0.2032
         4         0.0254     -0.0632      0.0138
         5         0.1677     -0.1055      0.2734
         6        -0.0133     -0.0048      0.0132
 Ground to excited state transition velocity quadrupole moments (Au):
       state          XX          YY          ZZ          XY          XZ          YZ
         1        -0.1417      0.0800      0.0040     -0.4921      0.0458      0.0146
         2         0.0146     -0.0070     -0.0040     -0.0348      0.0124      0.0760
         3        -0.0109     -0.0006      0.0219     -0.0548      0.0602      0.0081
         4        -1.1339      0.2287     -0.0011      0.0268      0.0672     -0.0376
         5        -0.6727      0.2980      0.0460      0.2034      0.0708      0.0197
         6        -0.1191     -0.1647      0.1492      0.0105      0.0251      0.0591
 <0|del|b> * <b|rxdel|0> + <0|del|b> * <b|delr+rdel|0>
 Rotatory Strengths (R) in cgs (10**-40 erg-esu-cm/Gauss)
       state          XX          YY          ZZ    R(velocity)    E-M Angle
         1        31.7753     -4.7397    -38.6718     -3.8787       90.45
         2         0.5639     24.5394     18.2357     14.4463       26.27
         3        33.0282      2.2349     32.0124     22.4252       19.29
         4       -58.1980     -0.4607      5.7204    -17.6461      149.04
         5       -98.9125      4.1108    -14.2242    -36.3419      107.88
         6         0.8388     -0.6183     -0.7298     -0.1697       98.24
 1/2[<0|r|b>*<b|rxdel|0> + (<0|rxdel|b>*<b|r|0>)*]
 Rotatory Strengths (R) in cgs (10**-40 erg-esu-cm/Gauss)
       state          XX          YY          ZZ     R(length)
         1       -58.0967     -4.6311     42.2321     -6.8319
         2        44.6363     -1.9177      6.3410     16.3532
         3         5.0924     70.9283     -4.0672     23.9845
         4         2.8535    -58.3949     -0.8571    -18.7995
         5         8.3683   -113.3295     -6.7856    -37.2489
         6         0.2299      0.7399     -0.6400      0.1099
  1/2[<0|del|b>*<b|r|0> + (<0|r|b>*<b|del|0>)*] (Au)
       state          X           Y           Z        Dip. S.   Osc.(frdel)
         1        -0.2510     -0.0020     -0.0002      0.2532      0.1688
         2        -0.0009     -0.0001     -0.0001      0.0011      0.0007
         3        -0.0002     -0.0014     -0.0000      0.0017      0.0011
         4        -0.0052     -0.3022     -0.0011      0.3085      0.2057
         5        -0.0011     -0.4568     -0.0003      0.4581      0.3054
         6        -0.0002     -0.0097     -0.0024      0.0122      0.0081

 Excitation energies and oscillator strengths:
 
 Excited State   1:      Singlet-A      3.2602 eV  380.30 nm  f=0.1766  <S**2>=0.000
      52 -> 53         0.70059
 This state for optimization and/or second-order correction.
 Total Energy, E(TD-HF/TD-DFT) =  -633.206542721    
 Copying the excited state density for this state as the 1-particle RhoCI density.
 
 Excited State   2:      Singlet-A      4.0149 eV  308.81 nm  f=0.0008  <S**2>=0.000
      50 -> 54         0.18276
      51 -> 53         0.57595
      51 -> 54         0.32217
 
 Excited State   3:      Singlet-A      4.1714 eV  297.23 nm  f=0.0013  <S**2>=0.000
      49 -> 53         0.22390
      49 -> 54        -0.14131
      50 -> 53         0.54057
      50 -> 54        -0.25461
      50 -> 58         0.11356
      51 -> 54         0.20475
 
 Excited State   4:      Singlet-A      5.0630 eV  244.88 nm  f=0.2161  <S**2>=0.000
      52 -> 54         0.69861
 
 Excited State   5:      Singlet-A      5.5118 eV  224.94 nm  f=0.3124  <S**2>=0.000
      49 -> 53         0.62858
      50 -> 53        -0.25826
      51 -> 53         0.12108
 
 Excited State   6:      Singlet-A      5.9187 eV  209.48 nm  f=0.0076  <S**2>=0.000
      52 -> 55         0.65852
      52 -> 56         0.14390
      52 -> 57         0.10618
 SavETr:  write IOETrn=   770 NScale= 10 NData=  16 NLR=1 NState=    6 LETran=     118.
 Leave Link  914 at Fri Jan 23 15:56:22 2026, MaxMem=  2147483648 cpu:            2099.6 elap:             131.9
 (Enter /data/home/wyx/g16/l601.exe)
 Copying SCF densities to generalized density rwf, IOpCl= 0 IROHF=0.

 **********************************************************************

            Population analysis using the SCF density.

 **********************************************************************

 Orbital symmetries:
       Occupied  (A) (A) (A) (A) (A) (A) (A) (A) (A) (A) (A) (A)
                 (A) (A) (A) (A) (A) (A) (A) (A) (A) (A) (A) (A)
                 (A) (A) (A) (A) (A) (A) (A) (A) (A) (A) (A) (A)
                 (A) (A) (A) (A) (A) (A) (A) (A) (A) (A) (A) (A)
                 (A) (A) (A) (A)
       Virtual   (A) (A) (A) (A) (A) (A) (A) (A) (A) (A) (A) (A)
                 (A) (A) (A) (A) (A) (A) (A) (A) (A) (A) (A) (A)
                 (A) (A) (A) (A) (A) (A) (A) (A) (A) (A) (A) (A)
                 (A) (A) (A) (A) (A) (A) (A) (A) (A) (A) (A) (A)
                 (A) (A) (A) (A) (A) (A) (A) (A) (A) (A) (A) (A)
                 (A) (A) (A) (A) (A) (A) (A) (A) (A) (A) (A) (A)
                 (A) (A) (A) (A) (A) (A) (A) (A) (A) (A) (A) (A)
                 (A) (A) (A) (A) (A) (A) (A) (A) (A) (A) (A) (A)
                 (A) (A) (A) (A) (A) (A) (A) (A) (A) (A) (A) (A)
                 (A) (A) (A) (A) (A) (A) (A) (A) (A) (A) (A) (A)
                 (A) (A) (A) (A) (A) (A) (A) (A) (A) (A) (A) (A)
                 (A) (A) (A) (A) (A) (A) (A) (A) (A) (A) (A) (A)
                 (A) (A) (A) (A) (A) (A) (A) (A) (A) (A) (A) (A)
                 (A) (A) (A) (A) (A) (A) (A) (A) (A) (A) (A) (A)
                 (A) (A) (A) (A) (A) (A) (A) (A) (A) (A) (A) (A)
                 (A) (A) (A) (A) (A) (A) (A) (A) (A) (A) (A) (A)
                 (A) (A) (A) (A) (A) (A) (A) (A) (A) (A) (A) (A)
                 (A) (A) (A) (A) (A) (A) (A) (A) (A) (A) (A) (A)
                 (A) (A) (A) (A) (A) (A) (A) (A) (A) (A) (A) (A)
                 (A) (A) (A) (A) (A) (A) (A) (A) (A) (A) (A) (A)
                 (A) (A) (A) (A) (A) (A) (A) (A) (A) (A) (A) (A)
                 (A) (A) (A) (A) (A) (A) (A) (A) (A) (A) (A) (A)
                 (A) (A) (A) (A) (A) (A) (A) (A) (A) (A) (A) (A)
                 (A) (A) (A) (A) (A) (A) (A) (A) (A) (A) (A) (A)
                 (A) (A) (A) (A) (A) (A) (A) (A) (A) (A) (A) (A)
                 (A) (A) (A) (A)
 The electronic state is 1-A.
 Alpha  occ. eigenvalues --  -19.17824 -19.17089 -14.44439 -10.33376 -10.32848
 Alpha  occ. eigenvalues --  -10.32415 -10.31803 -10.26050 -10.25211 -10.24885
 Alpha  occ. eigenvalues --  -10.24593 -10.24554 -10.24239 -10.23574  -1.11722
 Alpha  occ. eigenvalues --   -1.11243  -1.08044  -0.91391  -0.90418  -0.83932
 Alpha  occ. eigenvalues --   -0.82646  -0.81683  -0.78568  -0.73958  -0.71705
 Alpha  occ. eigenvalues --   -0.68659  -0.61631  -0.58298  -0.56920  -0.55195
 Alpha  occ. eigenvalues --   -0.54644  -0.54016  -0.52590  -0.51878  -0.50850
 Alpha  occ. eigenvalues --   -0.49849  -0.49545  -0.49249  -0.48656  -0.48116
 Alpha  occ. eigenvalues --   -0.47038  -0.45272  -0.45190  -0.43722  -0.43163
 Alpha  occ. eigenvalues --   -0.42292  -0.42176  -0.41757  -0.32722  -0.32186
 Alpha  occ. eigenvalues --   -0.31162  -0.25623
 Alpha virt. eigenvalues --   -0.02743   0.02572   0.06267   0.08051   0.08451
 Alpha virt. eigenvalues --    0.09909   0.10731   0.11792   0.12571   0.13501
 Alpha virt. eigenvalues --    0.13990   0.14852   0.15612   0.16245   0.16927
 Alpha virt. eigenvalues --    0.17547   0.17846   0.18052   0.18191   0.19210
 Alpha virt. eigenvalues --    0.19917   0.22094   0.22834   0.23456   0.23793
 Alpha virt. eigenvalues --    0.23929   0.24814   0.25631   0.26141   0.26589
 Alpha virt. eigenvalues --    0.27060   0.27745   0.28807   0.29078   0.30122
 Alpha virt. eigenvalues --    0.31722   0.31958   0.32485   0.33532   0.34443
 Alpha virt. eigenvalues --    0.35019   0.36002   0.36683   0.38181   0.38536
 Alpha virt. eigenvalues --    0.39837   0.41017   0.41510   0.42016   0.42593
 Alpha virt. eigenvalues --    0.44029   0.44584   0.45547   0.46178   0.46341
 Alpha virt. eigenvalues --    0.47307   0.47738   0.48100   0.48268   0.49126
 Alpha virt. eigenvalues --    0.49501   0.50578   0.50997   0.51439   0.51649
 Alpha virt. eigenvalues --    0.52760   0.53077   0.53422   0.53963   0.54277
 Alpha virt. eigenvalues --    0.54515   0.55664   0.56119   0.56649   0.58357
 Alpha virt. eigenvalues --    0.58618   0.59402   0.61006   0.61128   0.62875
 Alpha virt. eigenvalues --    0.63619   0.65644   0.66359   0.66542   0.67911
 Alpha virt. eigenvalues --    0.68615   0.69951   0.71169   0.71968   0.72573
 Alpha virt. eigenvalues --    0.73214   0.74141   0.74783   0.75896   0.77838
 Alpha virt. eigenvalues --    0.78709   0.79912   0.82693   0.85483   0.86313
 Alpha virt. eigenvalues --    0.90144   0.94194   1.00989   1.02690   1.23307
 Alpha virt. eigenvalues --    1.25109   1.27127   1.28039   1.29464   1.31214
 Alpha virt. eigenvalues --    1.32634   1.32817   1.34104   1.34890   1.36137
 Alpha virt. eigenvalues --    1.36505   1.37526   1.38393   1.39036   1.39909
 Alpha virt. eigenvalues --    1.39957   1.40583   1.40761   1.41418   1.41808
 Alpha virt. eigenvalues --    1.43470   1.43938   1.44290   1.45162   1.47301
 Alpha virt. eigenvalues --    1.48054   1.49597   1.49638   1.50346   1.51117
 Alpha virt. eigenvalues --    1.51480   1.52515   1.52941   1.54871   1.57997
 Alpha virt. eigenvalues --    1.58633   1.60649   1.60738   1.61394   1.62479
 Alpha virt. eigenvalues --    1.62730   1.63346   1.64195   1.64627   1.65849
 Alpha virt. eigenvalues --    1.66791   1.67185   1.67664   1.68244   1.68410
 Alpha virt. eigenvalues --    1.68927   1.69893   1.70226   1.71521   1.72365
 Alpha virt. eigenvalues --    1.73826   1.75136   1.76089   1.76594   1.78711
 Alpha virt. eigenvalues --    1.80785   1.82937   1.84170   1.86067   1.86564
 Alpha virt. eigenvalues --    1.86796   1.87803   1.88562   1.88947   1.90564
 Alpha virt. eigenvalues --    1.91232   1.94601   1.95119   1.98829   1.99790
 Alpha virt. eigenvalues --    2.01265   2.03908   2.05136   2.06759   2.09598
 Alpha virt. eigenvalues --    2.10936   2.12484   2.15113   2.17332   2.19674
 Alpha virt. eigenvalues --    2.20209   2.21378   2.21969   2.23012   2.26195
 Alpha virt. eigenvalues --    2.27237   2.27601   2.29361   2.31235   2.32203
 Alpha virt. eigenvalues --    2.33735   2.34403   2.36814   2.37788   2.38500
 Alpha virt. eigenvalues --    2.39574   2.40303   2.41611   2.43236   2.44980
 Alpha virt. eigenvalues --    2.46083   2.47966   2.50020   2.50688   2.51522
 Alpha virt. eigenvalues --    2.52246   2.54025   2.54967   2.56748   2.58038
 Alpha virt. eigenvalues --    2.58984   2.60632   2.61588   2.62561   2.63134
 Alpha virt. eigenvalues --    2.64601   2.65864   2.66869   2.67407   2.68752
 Alpha virt. eigenvalues --    2.71895   2.72004   2.73212   2.74095   2.75496
 Alpha virt. eigenvalues --    2.75834   2.76725   2.77400   2.78063   2.79363
 Alpha virt. eigenvalues --    2.80711   2.81900   2.83319   2.84032   2.84451
 Alpha virt. eigenvalues --    2.85605   2.86473   2.88405   2.89841   2.91919
 Alpha virt. eigenvalues --    2.97673   2.99721   3.00735   3.05482   3.10768
 Alpha virt. eigenvalues --    3.12444   3.15489   3.17244   3.18212   3.21250
 Alpha virt. eigenvalues --    3.21533   3.23367   3.24568   3.26119   3.27176
 Alpha virt. eigenvalues --    3.27731   3.29995   3.33321   3.34583   3.36685
 Alpha virt. eigenvalues --    3.37551   3.38873   3.39841   3.40257   3.41959
 Alpha virt. eigenvalues --    3.42426   3.44641   3.45444   3.47472   3.48247
 Alpha virt. eigenvalues --    3.49445   3.49820   3.55339   3.58547   3.60066
 Alpha virt. eigenvalues --    3.60781   3.90690   4.00289   4.33968   4.36562
 Alpha virt. eigenvalues --   21.65680  21.80334  22.08404  22.10904  22.11874
 Alpha virt. eigenvalues --   22.15061  22.15354  22.18864  22.20202  22.24817
 Alpha virt. eigenvalues --   22.29104  31.92282  43.63557  43.66267
          Condensed to atoms (all electrons):
               1          2          3          4          5          6
     1  O    7.932108   0.000000  -0.000210   0.000019   0.018119   0.013121
     2  O    0.000000   7.971881   0.000449   0.000026  -0.197615   0.001132
     3  N   -0.000210   0.000449   6.388108   0.371993  -0.118847   0.327365
     4  H    0.000019   0.000026   0.371993   0.411684   0.016744  -0.046924
     5  C    0.018119  -0.197615  -0.118847   0.016744   7.066359  -0.072146
     6  C    0.013121   0.001132   0.327365  -0.046924  -0.072146   5.601826
     7  C   -0.000301  -0.041489   0.386288  -0.038634   0.425834  -0.111063
     8  C   -0.000427   0.709686   0.004545  -0.000745  -0.285100   0.029534
     9  C   -0.015235   0.022217   0.012664  -0.000100  -0.603937  -0.078862
    10  H    0.012312  -0.000013  -0.001326   0.000020  -0.117682   0.027145
    11  H    0.005375   0.000123   0.003863   0.000025  -0.037921  -0.018665
    12  C   -0.224790  -0.002673  -0.089648   0.014682   0.172239  -0.134310
    13  C    0.713919  -0.000022   0.001190   0.000484   0.079602   0.153745
    14  C   -0.000007  -0.006413  -0.034456  -0.009819  -0.082147   0.010997
    15  H   -0.000000   0.004268   0.004094   0.001839   0.019739   0.006504
    16  H   -0.000000   0.001898   0.000534   0.000779  -0.007677  -0.001010
    17  H   -0.000000   0.002258  -0.002599   0.000922  -0.006431  -0.001713
    18  C    0.000090  -0.104471  -0.000539   0.000020  -0.266260   0.000368
    19  H   -0.000002   0.008537   0.000003  -0.000001   0.024199   0.000025
    20  H    0.000110   0.003876   0.000120   0.000001   0.043897  -0.001189
    21  H    0.000006   0.000931   0.000012  -0.000001   0.003757   0.000231
    22  C   -0.106178   0.000000  -0.000095   0.000120   0.004322  -0.015819
    23  H    0.001304   0.000000  -0.000010  -0.000014  -0.000046   0.010371
    24  H    0.004864  -0.000000   0.000048  -0.000054  -0.000657  -0.030945
    25  H    0.007130   0.000000   0.000027  -0.000002  -0.000152  -0.001018
    26  C    0.000881   0.000007  -0.028068  -0.006120   0.000402   0.181492
    27  H   -0.000049  -0.000000  -0.002523   0.000458   0.000388  -0.034379
    28  H   -0.000248  -0.000000   0.002146   0.000812  -0.000005  -0.045611
    29  H    0.000025  -0.000000   0.001266   0.001475  -0.000429  -0.050276
               7          8          9         10         11         12
     1  O   -0.000301  -0.000427  -0.015235   0.012312   0.005375  -0.224790
     2  O   -0.041489   0.709686   0.022217  -0.000013   0.000123  -0.002673
     3  N    0.386288   0.004545   0.012664  -0.001326   0.003863  -0.089648
     4  H   -0.038634  -0.000745  -0.000100   0.000020   0.000025   0.014682
     5  C    0.425834  -0.285100  -0.603937  -0.117682  -0.037921   0.172239
     6  C   -0.111063   0.029534  -0.078862   0.027145  -0.018665  -0.134310
     7  C    5.407730  -0.208105  -0.192338   0.017671  -0.006094   0.013829
     8  C   -0.208105   5.367409   0.141836  -0.009617  -0.003118  -0.040740
     9  C   -0.192338   0.141836   6.360989   0.541104   0.397804  -0.064838
    10  H    0.017671  -0.009617   0.541104   0.516552  -0.041531  -0.110150
    11  H   -0.006094  -0.003118   0.397804  -0.041531   0.568662  -0.014631
    12  C    0.013829  -0.040740  -0.064838  -0.110150  -0.014631   7.322167
    13  C    0.014649  -0.007313  -0.253924  -0.001387  -0.003104  -0.429481
    14  C    0.275338  -0.033677   0.009192   0.000558  -0.001188  -0.002849
    15  H   -0.081283   0.005519   0.000332  -0.000004   0.000057  -0.001405
    16  H   -0.026012  -0.007199  -0.000488  -0.000054   0.000190   0.000042
    17  H   -0.021282  -0.001972   0.000779   0.000055  -0.000064   0.000650
    18  C    0.000837   0.321204   0.001850   0.007981  -0.010929  -0.003100
    19  H    0.000330  -0.052579  -0.001091   0.000589   0.000014  -0.000183
    20  H    0.002439  -0.066981  -0.009528  -0.006210   0.002635   0.007282
    21  H    0.000156  -0.025048  -0.009443  -0.001532   0.000855  -0.003112
    22  C    0.000055  -0.000064   0.006464   0.000152   0.002222  -0.256710
    23  H    0.000008   0.000003  -0.002231  -0.000119   0.000165  -0.011401
    24  H   -0.000001  -0.000002   0.003315  -0.000002  -0.000164   0.066524
    25  H    0.000008   0.000003   0.000189  -0.000097  -0.000061   0.021425
    26  C    0.002673   0.000634   0.021587   0.000077  -0.000732  -0.081310
    27  H   -0.000806  -0.000012  -0.000275   0.000043  -0.000018  -0.018950
    28  H   -0.000741   0.000002  -0.000459   0.000009  -0.000110  -0.007702
    29  H    0.003415  -0.000006  -0.000584  -0.000013   0.000101   0.023602
              13         14         15         16         17         18
     1  O    0.713919  -0.000007  -0.000000  -0.000000  -0.000000   0.000090
     2  O   -0.000022  -0.006413   0.004268   0.001898   0.002258  -0.104471
     3  N    0.001190  -0.034456   0.004094   0.000534  -0.002599  -0.000539
     4  H    0.000484  -0.009819   0.001839   0.000779   0.000922   0.000020
     5  C    0.079602  -0.082147   0.019739  -0.007677  -0.006431  -0.266260
     6  C    0.153745   0.010997   0.006504  -0.001010  -0.001713   0.000368
     7  C    0.014649   0.275338  -0.081283  -0.026012  -0.021282   0.000837
     8  C   -0.007313  -0.033677   0.005519  -0.007199  -0.001972   0.321204
     9  C   -0.253924   0.009192   0.000332  -0.000488   0.000779   0.001850
    10  H   -0.001387   0.000558  -0.000004  -0.000054   0.000055   0.007981
    11  H   -0.003104  -0.001188   0.000057   0.000190  -0.000064  -0.010929
    12  C   -0.429481  -0.002849  -0.001405   0.000042   0.000650  -0.003100
    13  C    5.489555   0.000031  -0.000031  -0.000003  -0.000012   0.000891
    14  C    0.000031   5.045213   0.388664   0.420225   0.408411   0.001526
    15  H   -0.000031   0.388664   0.581508  -0.027933  -0.026265   0.000266
    16  H   -0.000003   0.420225  -0.027933   0.507896  -0.026094  -0.000206
    17  H   -0.000012   0.408411  -0.026265  -0.026094   0.507731   0.000001
    18  C    0.000891   0.001526   0.000266  -0.000206   0.000001   5.339842
    19  H   -0.000012   0.000049  -0.000005   0.000034  -0.000028   0.393982
    20  H    0.000660   0.000057  -0.000016  -0.000035   0.000003   0.379642
    21  H   -0.000115  -0.000250  -0.000006   0.000019  -0.000007   0.398465
    22  C    0.286577  -0.000019   0.000002  -0.000000   0.000000   0.000032
    23  H   -0.022483  -0.000001   0.000000  -0.000000   0.000000  -0.000002
    24  H   -0.095522   0.000001   0.000000   0.000000   0.000000   0.000002
    25  H   -0.038249   0.000000   0.000000   0.000000  -0.000000  -0.000001
    26  C   -0.053983   0.001042   0.000160   0.000044  -0.000135   0.000019
    27  H    0.006543  -0.000114  -0.000001   0.000004  -0.000008  -0.000001
    28  H   -0.003831   0.000081  -0.000011  -0.000002   0.000001  -0.000000
    29  H   -0.000939  -0.000221   0.000110  -0.000004   0.000002   0.000000
              19         20         21         22         23         24
     1  O   -0.000002   0.000110   0.000006  -0.106178   0.001304   0.004864
     2  O    0.008537   0.003876   0.000931   0.000000   0.000000  -0.000000
     3  N    0.000003   0.000120   0.000012  -0.000095  -0.000010   0.000048
     4  H   -0.000001   0.000001  -0.000001   0.000120  -0.000014  -0.000054
     5  C    0.024199   0.043897   0.003757   0.004322  -0.000046  -0.000657
     6  C    0.000025  -0.001189   0.000231  -0.015819   0.010371  -0.030945
     7  C    0.000330   0.002439   0.000156   0.000055   0.000008  -0.000001
     8  C   -0.052579  -0.066981  -0.025048  -0.000064   0.000003  -0.000002
     9  C   -0.001091  -0.009528  -0.009443   0.006464  -0.002231   0.003315
    10  H    0.000589  -0.006210  -0.001532   0.000152  -0.000119  -0.000002
    11  H    0.000014   0.002635   0.000855   0.002222   0.000165  -0.000164
    12  C   -0.000183   0.007282  -0.003112  -0.256710  -0.011401   0.066524
    13  C   -0.000012   0.000660  -0.000115   0.286577  -0.022483  -0.095522
    14  C    0.000049   0.000057  -0.000250  -0.000019  -0.000001   0.000001
    15  H   -0.000005  -0.000016  -0.000006   0.000002   0.000000   0.000000
    16  H    0.000034  -0.000035   0.000019  -0.000000  -0.000000   0.000000
    17  H   -0.000028   0.000003  -0.000007   0.000000   0.000000   0.000000
    18  C    0.393982   0.379642   0.398465   0.000032  -0.000002   0.000002
    19  H    0.505563  -0.023513  -0.009712  -0.000000   0.000000   0.000000
    20  H   -0.023513   0.540062  -0.025188   0.000023  -0.000000  -0.000000
    21  H   -0.009712  -0.025188   0.496782  -0.000013   0.000000  -0.000000
    22  C   -0.000000   0.000023  -0.000013   5.422108   0.400987   0.397397
    23  H    0.000000  -0.000000   0.000000   0.400987   0.494544  -0.027613
    24  H    0.000000  -0.000000  -0.000000   0.397397  -0.027613   0.545153
    25  H   -0.000000  -0.000000   0.000000   0.384292  -0.007730  -0.022240
    26  C    0.000000  -0.000017   0.000004  -0.029736  -0.012934   0.016574
    27  H    0.000000  -0.000000  -0.000000  -0.010878   0.001021  -0.001618
    28  H   -0.000000  -0.000000   0.000000   0.006640  -0.000224  -0.008910
    29  H    0.000000   0.000000  -0.000000   0.002002   0.000200   0.000673
              25         26         27         28         29
     1  O    0.007130   0.000881  -0.000049  -0.000248   0.000025
     2  O    0.000000   0.000007  -0.000000  -0.000000  -0.000000
     3  N    0.000027  -0.028068  -0.002523   0.002146   0.001266
     4  H   -0.000002  -0.006120   0.000458   0.000812   0.001475
     5  C   -0.000152   0.000402   0.000388  -0.000005  -0.000429
     6  C   -0.001018   0.181492  -0.034379  -0.045611  -0.050276
     7  C    0.000008   0.002673  -0.000806  -0.000741   0.003415
     8  C    0.000003   0.000634  -0.000012   0.000002  -0.000006
     9  C    0.000189   0.021587  -0.000275  -0.000459  -0.000584
    10  H   -0.000097   0.000077   0.000043   0.000009  -0.000013
    11  H   -0.000061  -0.000732  -0.000018  -0.000110   0.000101
    12  C    0.021425  -0.081310  -0.018950  -0.007702   0.023602
    13  C   -0.038249  -0.053983   0.006543  -0.003831  -0.000939
    14  C    0.000000   0.001042  -0.000114   0.000081  -0.000221
    15  H    0.000000   0.000160  -0.000001  -0.000011   0.000110
    16  H    0.000000   0.000044   0.000004  -0.000002  -0.000004
    17  H   -0.000000  -0.000135  -0.000008   0.000001   0.000002
    18  C   -0.000001   0.000019  -0.000001  -0.000000   0.000000
    19  H   -0.000000   0.000000   0.000000  -0.000000   0.000000
    20  H   -0.000000  -0.000017  -0.000000  -0.000000   0.000000
    21  H    0.000000   0.000004  -0.000000   0.000000  -0.000000
    22  C    0.384292  -0.029736  -0.010878   0.006640   0.002002
    23  H   -0.007730  -0.012934   0.001021  -0.000224   0.000200
    24  H   -0.022240   0.016574  -0.001618  -0.008910   0.000673
    25  H    0.492465   0.001832   0.000112   0.000729  -0.000040
    26  C    0.001832   5.251359   0.428800   0.428852   0.389702
    27  H    0.000112   0.428800   0.480269  -0.026199  -0.018296
    28  H    0.000729   0.428852  -0.026199   0.507592  -0.025980
    29  H   -0.000040   0.389702  -0.018296  -0.025980   0.520500
 Mulliken charges:
               1
     1  O   -0.361934
     2  O   -0.374594
     3  N   -0.226397
     4  H    0.280310
     5  C   -0.078550
     6  C    0.280075
     7  C    0.176888
     8  C    0.162330
     9  C   -0.286987
    10  H    0.165469
    11  H    0.156240
    12  C   -0.144457
    13  C    0.162567
    14  C   -0.390221
    15  H    0.123899
    16  H    0.165050
    17  H    0.165796
    18  C   -0.461511
    19  H    0.153802
    20  H    0.151871
    21  H    0.173209
    22  C   -0.493882
    23  H    0.176202
    24  H    0.153178
    25  H    0.161377
    26  C   -0.513105
    27  H    0.196489
    28  H    0.173170
    29  H    0.153717
 Sum of Mulliken charges =  -0.00000
 Mulliken charges with hydrogens summed into heavy atoms:
               1
     1  O   -0.361934
     2  O   -0.374594
     3  N    0.053913
     5  C   -0.078550
     6  C    0.280075
     7  C    0.176888
     8  C    0.162330
     9  C    0.034721
    12  C   -0.144457
    13  C    0.162567
    14  C    0.064523
    18  C    0.017371
    22  C   -0.003126
    26  C    0.010271
 Electronic spatial extent (au):  <R**2>=           3192.7369
 Charge=              0.0000 electrons
 Dipole moment (field-independent basis, Debye):
    X=              3.9256    Y=              7.2579    Z=             -0.0636  Tot=              8.2517
 Quadrupole moment (field-independent basis, Debye-Ang):
   XX=            -97.6982   YY=            -78.4154   ZZ=            -84.9228
   XY=             12.2462   XZ=              4.7205   YZ=             -1.9022
 Traceless Quadrupole moment (field-independent basis, Debye-Ang):
   XX=            -10.6861   YY=              8.5967   ZZ=              2.0893
   XY=             12.2462   XZ=              4.7205   YZ=             -1.9022
 Octapole moment (field-independent basis, Debye-Ang**2):
  XXX=            107.5326  YYY=             62.5875  ZZZ=              1.6937  XYY=            -34.3167
  XXY=             30.4341  XXZ=             -7.4104  XZZ=              1.3341  YZZ=             -1.3996
  YYZ=              4.0324  XYZ=             -5.1791
 Hexadecapole moment (field-independent basis, Debye-Ang**3):
 XXXX=          -3039.3249 YYYY=          -1283.3798 ZZZZ=           -149.3378 XXXY=             33.5465
 XXXZ=             53.3227 YYYX=             86.5872 YYYZ=            -20.5920 ZZZX=             -3.3455
 ZZZY=              3.9591 XXYY=           -689.2739 XXZZ=           -482.1327 YYZZ=           -243.7465
 XXYZ=             -8.4211 YYXZ=              8.1086 ZZXY=             -0.8978
 N-N= 9.004830696746D+02 E-N=-3.277026389584D+03  KE= 6.307303185138D+02
 Leave Link  601 at Fri Jan 23 15:56:23 2026, MaxMem=  2147483648 cpu:               0.7 elap:               0.1
 (Enter /data/home/wyx/g16/l9999.exe)
 Electronic transition elements 
                 1             2             3             4             5 
      1  -0.633207D+03 -0.633179D+03 -0.633173D+03 -0.633140D+03 -0.633124D+03
      2  -0.143846D+01 -0.713292D-01 -0.681251D-01  0.276549D+00  0.435379D+00
      3  -0.358115D+00 -0.474586D-01  0.822446D-01 -0.128305D+01 -0.145329D+01
      4  -0.116425D+00  0.317176D-01 -0.375853D-01  0.140801D+00  0.108820D+00
      5   0.163915D+00  0.952345D-02  0.100161D-01 -0.446619D-01 -0.847652D-01
      6   0.445685D-01  0.720718D-02 -0.111596D-01  0.228525D+00  0.288188D+00
      7   0.123535D-01 -0.178426D-02  0.223010D-02 -0.211379D-01 -0.220756D-01
      8   0.983822D-01  0.808747D+00  0.518810D+00  0.432492D-01  0.161227D+00
      9  -0.976090D-03  0.150484D+00 -0.867406D+00 -0.506773D-01 -0.384054D-01
     10  -0.146147D+01 -0.143326D+00 -0.131281D+00  0.196794D-01  0.294171D+00
     11   0.182697D+00  0.367220D-01  0.126570D-01 -0.100230D+01 -0.696300D+00
     12  -0.256137D+00 -0.240840D-01 -0.355380D-01  0.908503D-01  0.318299D+00
     13   0.156395D-01 -0.903259D-02  0.332771D-01  0.515653D-02  0.492732D-01
     14  -0.451075D+00 -0.287429D-01 -0.477129D-01 -0.405688D+00 -0.152694D+00
     15   0.660082D-01 -0.865158D-02  0.537760D-01 -0.311391D-01 -0.216721D-01
     16  -0.175680D-01  0.732571D-01  0.236080D-01 -0.604452D-01  0.208432D-01
                 6 
      1  -0.633109D+03
      2  -0.573358D-01
      3   0.214334D+00
      4   0.591189D-01
      5   0.127930D-01
      6  -0.444878D-01
      7  -0.324780D-01
      8  -0.123475D-01
      9  -0.878807D-02
     10   0.119968D-01
     11  -0.128087D+00
     12  -0.150672D+00
     13   0.144262D+00
     14   0.146699D-01
     15  -0.278632D-01
     16   0.712003D-01
 1\1\GINC-CN012\SP\RCAM-B3LYP TD-FC\TZVP\C11H15N1O2\WYX\23-Jan-2026\0\\
 #p CAM-B3LYP TZVP em=gd3bj td(nstates=6,root=1) scrf=(Solvent=TetraHyd
 roFuran)\\Title Card Required\\0,1\O,0,2.837701,-1.568794,0.099575\O,0
 ,-3.424887,-1.633626,-0.023394\N,0,-0.648557,1.514105,-0.28348\H,0,-0.
 958923,2.472813,-0.335497\C,0,-1.242714,-0.759619,-0.213198\C,0,0.6909
 9,1.315312,-0.068392\C,0,-1.623381,0.560964,-0.267788\C,0,-2.218501,-1
 .836292,-0.137758\C,0,0.208122,-1.098186,-0.27883\H,0,0.440051,-1.9259
 51,0.394092\H,0,0.454774,-1.511322,-1.26971\C,0,1.149597,0.024304,0.01
 1447\C,0,2.515362,-0.397443,0.300322\C,0,-3.011666,1.096031,-0.321259\
 H,0,-3.013226,2.16616,-0.520073\H,0,-3.59624,0.598471,-1.087329\H,0,-3
 .532545,0.922923,0.6165\C,0,-1.722039,-3.255398,-0.18837\H,0,-2.554606
 ,-3.925421,-0.369789\H,0,-0.968739,-3.410473,-0.955159\H,0,-1.267388,-
 3.534461,0.760825\C,0,3.547711,0.53628,0.883789\H,0,4.058453,1.084444,
 0.089786\H,0,3.127949,1.257926,1.579702\H,0,4.289324,-0.072038,1.39650
 3\C,0,1.467824,2.586963,0.029545\H,0,1.609693,2.894746,1.065273\H,0,2.
 444785,2.503228,-0.430565\H,0,0.941078,3.394356,-0.476767\\Version=ES6
 4L-G16RevA.03\State=1-A\HF=-633.3263517\RMSD=5.240e-09\PG=C01 [X(C11H1
 5N1O2)]\\@


            ARSENIC

 FOR SMELTER FUMES HAVE I BEEN NAMED,
    I AM AN EVIL POISONOUS SMOKE...
 BUT WHEN FROM POISON I AM FREED,
    THROUGH ART AND SLEIGHT OF HAND,
 THEN CAN I CURE BOTH MAN AND BEAST,
    FROM DIRE DISEASE OFTTIMES DIRECT THEM;
 BUT PREPARE ME CORRECTLY, AND TAKE GREAT CARE
    THAT YOU FAITHFULLY KEEP WATCHFUL GUARD OVER ME;
 FOR ELSE I AM POISON, AND POISON REMAIN,
    THAT PIERCES THE HEART OF MANY A ONE.

 ATTRIBUTED TO THE PROBABLY MYTHICAL 15TH
 CENTURY MONK, BASILIUS VALENTINUS
 Job cpu time:       0 days  0 hours 50 minutes  3.0 seconds.
 Elapsed time:       0 days  0 hours  3 minutes  9.1 seconds.
 File lengths (MBytes):  RWF=    833 Int=      0 D2E=      0 Chk=     34 Scr=      1
 Normal termination of Gaussian 16 at Fri Jan 23 15:56:25 2026.
