 Entering Gaussian System, Link 0=g16
 Input=DDL-S2-cLR-1.gjf
 Output=DDL-S2-cLR-1.log
 Initial command:
 /data/home/wyx/g16/l1.exe "/scr/tmp/wyx/13106/Gau-1970137.inp" -scrdir="/scr/tmp/wyx/13106/"
 Entering Link 1 = /data/home/wyx/g16/l1.exe PID=   1970138.
  
 Copyright (c) 1988,1990,1992,1993,1995,1998,2003,2009,2016,
            Gaussian, Inc.  All Rights Reserved.
  
 This is part of the Gaussian(R) 16 program.  It is based on
 the Gaussian(R) 09 system (copyright 2009, Gaussian, Inc.),
 the Gaussian(R) 03 system (copyright 2003, Gaussian, Inc.),
 the Gaussian(R) 98 system (copyright 1998, Gaussian, Inc.),
 the Gaussian(R) 94 system (copyright 1995, Gaussian, Inc.),
 the Gaussian 92(TM) system (copyright 1992, Gaussian, Inc.),
 the Gaussian 90(TM) system (copyright 1990, Gaussian, Inc.),
 the Gaussian 88(TM) system (copyright 1988, Gaussian, Inc.),
 the Gaussian 86(TM) system (copyright 1986, Carnegie Mellon
 University), and the Gaussian 82(TM) system (copyright 1983,
 Carnegie Mellon University). Gaussian is a federally registered
 trademark of Gaussian, Inc.
  
 This software contains proprietary and confidential information,
 including trade secrets, belonging to Gaussian, Inc.
  
 This software is provided under written license and may be
 used, copied, transmitted, or stored only in accord with that
 written license.
  
 The following legend is applicable only to US Government
 contracts under FAR:
  
                    RESTRICTED RIGHTS LEGEND
  
 Use, reproduction and disclosure by the US Government is
 subject to restrictions as set forth in subparagraphs (a)
 and (c) of the Commercial Computer Software - Restricted
 Rights clause in FAR 52.227-19.
  
 Gaussian, Inc.
 340 Quinnipiac St., Bldg. 40, Wallingford CT 06492
  
  
 ---------------------------------------------------------------
 Warning -- This program may not be used in any manner that
 competes with the business of Gaussian, Inc. or will provide
 assistance to any competitor of Gaussian, Inc.  The licensee
 of this program is prohibited from giving any competitor of
 Gaussian, Inc. access to this program.  By using this program,
 the user acknowledges that Gaussian, Inc. is engaged in the
 business of creating and licensing software in the field of
 computational chemistry and represents and warrants to the
 licensee that it is not a competitor of Gaussian, Inc. and that
 it will not use this program in any manner prohibited above.
 ---------------------------------------------------------------
  

 Cite this work as:
 Gaussian 16, Revision A.03,
 M. J. Frisch, G. W. Trucks, H. B. Schlegel, G. E. Scuseria, 
 M. A. Robb, J. R. Cheeseman, G. Scalmani, V. Barone, 
 G. A. Petersson, H. Nakatsuji, X. Li, M. Caricato, A. V. Marenich, 
 J. Bloino, B. G. Janesko, R. Gomperts, B. Mennucci, H. P. Hratchian, 
 J. V. Ortiz, A. F. Izmaylov, J. L. Sonnenberg, D. Williams-Young, 
 F. Ding, F. Lipparini, F. Egidi, J. Goings, B. Peng, A. Petrone, 
 T. Henderson, D. Ranasinghe, V. G. Zakrzewski, J. Gao, N. Rega, 
 G. Zheng, W. Liang, M. Hada, M. Ehara, K. Toyota, R. Fukuda, 
 J. Hasegawa, M. Ishida, T. Nakajima, Y. Honda, O. Kitao, H. Nakai, 
 T. Vreven, K. Throssell, J. A. Montgomery, Jr., J. E. Peralta, 
 F. Ogliaro, M. J. Bearpark, J. J. Heyd, E. N. Brothers, K. N. Kudin, 
 V. N. Staroverov, T. A. Keith, R. Kobayashi, J. Normand, 
 K. Raghavachari, A. P. Rendell, J. C. Burant, S. S. Iyengar, 
 J. Tomasi, M. Cossi, J. M. Millam, M. Klene, C. Adamo, R. Cammi, 
 J. W. Ochterski, R. L. Martin, K. Morokuma, O. Farkas, 
 J. B. Foresman, and D. J. Fox, Gaussian, Inc., Wallingford CT, 2016.
 
 ******************************************
 Gaussian 16:  ES64L-G16RevA.03 25-Dec-2016
                23-Jan-2026 
 ******************************************
 %nprocshared=16
 Will use up to   16 processors via shared memory.
 %mem=16GB
 %oldchk=DDL-LR-1.chk
 %chk=DDL-S2-cLR-1.chk
 Copying data from "DDL-LR-1.chk" to current chk file "DDL-S2-cLR-1.chk"
 IOpt=  2 FromEx=T IUOpen= 4 IOptOp= 5 NList=   0 IFRang= 0 IUIn= 4 IUOut= 2.
 ----------------------------------------------------------------------
 #p CAM-B3LYP TZVP em=gd3bj td(nstates=6,root=2) scrf=(Solvent=TetraHyd
 roFuran,CorrectedLR,NonEquilibrium=Save) Geom=Check Guess=Read
 ----------------------------------------------------------------------
 1/29=2,30=1,38=1,172=1/1;
 2/12=2,40=1/2;
 3/5=19,7=101,11=9,14=-4,25=1,30=1,70=9002201,71=1,72=20,74=-40,116=-2,124=41/1,2,3,8;
 4/5=1/1;
 5/5=2,38=6,53=20/2;
 8/6=1,10=1,107=2,108=6/1;
 9/8=2,15=1,41=6,42=1,70=2,73=22/14;
 10/5=4,13=10,28=2,74=20/2;
 6/7=2,8=2,9=2,10=2,22=-1/1;
 99/5=1,9=1/99;
 Leave Link    1 at Fri Jan 23 16:57:50 2026, MaxMem=  2147483648 cpu:               0.9 elap:               0.1
 (Enter /data/home/wyx/g16/l101.exe)
 -------------------
 Title Card Required
 -------------------
 Structure from the checkpoint file:  "DDL-S2-cLR-1.chk"
 Charge =  0 Multiplicity = 1
 Z-Matrix found in chk file.
 O,0,2.840157,-1.574847,0.017213
 O,0,-3.430102,-1.653909,-0.180776
 N,0,-0.670481,1.518778,-0.152961
 H,0,-0.982798,2.480069,-0.201647
 C,0,-1.250212,-0.763812,-0.197036
 C,0,0.675016,1.341581,-0.008681
 C,0,-1.643876,0.584691,-0.228405
 C,0,-2.209603,-1.850015,-0.197822
 C,0,0.189724,-1.077691,-0.160822
 H,0,0.395095,-1.875606,0.563843
 H,0,0.480365,-1.578977,-1.104718
 C,0,1.146704,0.026227,0.05146
 C,0,2.518601,-0.403432,0.259783
 C,0,-3.033737,1.108055,-0.358579
 H,0,-3.028151,2.195914,-0.431924
 H,0,-3.525023,0.702609,-1.240708
 H,0,-3.64683,0.820441,0.492948
 C,0,-1.703276,-3.273564,-0.183677
 H,0,-2.501282,-3.92619,-0.527291
 H,0,-0.823489,-3.429265,-0.803787
 H,0,-1.442388,-3.568728,0.835027
 C,0,3.572536,0.524789,0.814524
 H,0,4.076737,1.061124,0.007644
 H,0,3.175876,1.256905,1.513154
 H,0,4.316988,-0.087046,1.319777
 C,0,1.470748,2.60481,0.024276
 H,0,1.751247,2.896,1.03832
 H,0,2.384308,2.512972,-0.557335
 H,0,0.897148,3.428116,-0.401805
 Recover connectivity data from disk.
 ITRead=  0  0  0  0  0  0  0  0  0  0  0  0  0  0  0  0  0  0  0  0
 ITRead=  0  0  0  0  0  0  0  0  0
 MicOpt= -1 -1 -1 -1 -1 -1 -1 -1 -1 -1 -1 -1 -1 -1 -1 -1 -1 -1 -1 -1
 MicOpt= -1 -1 -1 -1 -1 -1 -1 -1 -1
 NAtoms=     29 NQM=       29 NQMF=       0 NMMI=      0 NMMIF=      0
                NMic=       0 NMicF=      0.
                    Isotopes and Nuclear Properties:
 (Nuclear quadrupole moments (NQMom) in fm**2, nuclear magnetic moments (NMagM)
  in nuclear magnetons)

  Atom         1           2           3           4           5           6           7           8           9          10
 IAtWgt=          16          16          14           1          12          12          12          12          12           1
 AtmWgt=  15.9949146  15.9949146  14.0030740   1.0078250  12.0000000  12.0000000  12.0000000  12.0000000  12.0000000   1.0078250
 NucSpn=           0           0           2           1           0           0           0           0           0           1
 AtZEff=   5.6000000   5.6000000   4.5500000   1.0000000   3.6000000   3.6000000   3.6000000   3.6000000   3.6000000   1.0000000
 NQMom=    0.0000000   0.0000000   2.0440000   0.0000000   0.0000000   0.0000000   0.0000000   0.0000000   0.0000000   0.0000000
 NMagM=    0.0000000   0.0000000   0.4037610   2.7928460   0.0000000   0.0000000   0.0000000   0.0000000   0.0000000   2.7928460
 AtZNuc=   8.0000000   8.0000000   7.0000000   1.0000000   6.0000000   6.0000000   6.0000000   6.0000000   6.0000000   1.0000000

  Atom        11          12          13          14          15          16          17          18          19          20
 IAtWgt=           1          12          12          12           1           1           1          12           1           1
 AtmWgt=   1.0078250  12.0000000  12.0000000  12.0000000   1.0078250   1.0078250   1.0078250  12.0000000   1.0078250   1.0078250
 NucSpn=           1           0           0           0           1           1           1           0           1           1
 AtZEff=   1.0000000   3.6000000   3.6000000   3.6000000   1.0000000   1.0000000   1.0000000   3.6000000   1.0000000   1.0000000
 NQMom=    0.0000000   0.0000000   0.0000000   0.0000000   0.0000000   0.0000000   0.0000000   0.0000000   0.0000000   0.0000000
 NMagM=    2.7928460   0.0000000   0.0000000   0.0000000   2.7928460   2.7928460   2.7928460   0.0000000   2.7928460   2.7928460
 AtZNuc=   1.0000000   6.0000000   6.0000000   6.0000000   1.0000000   1.0000000   1.0000000   6.0000000   1.0000000   1.0000000

  Atom        21          22          23          24          25          26          27          28          29
 IAtWgt=           1          12           1           1           1          12           1           1           1
 AtmWgt=   1.0078250  12.0000000   1.0078250   1.0078250   1.0078250  12.0000000   1.0078250   1.0078250   1.0078250
 NucSpn=           1           0           1           1           1           0           1           1           1
 AtZEff=   1.0000000   3.6000000   1.0000000   1.0000000   1.0000000   3.6000000   1.0000000   1.0000000   1.0000000
 NQMom=    0.0000000   0.0000000   0.0000000   0.0000000   0.0000000   0.0000000   0.0000000   0.0000000   0.0000000
 NMagM=    2.7928460   0.0000000   2.7928460   2.7928460   2.7928460   0.0000000   2.7928460   2.7928460   2.7928460
 AtZNuc=   1.0000000   6.0000000   1.0000000   1.0000000   1.0000000   6.0000000   1.0000000   1.0000000   1.0000000
 Leave Link  101 at Fri Jan 23 16:57:53 2026, MaxMem=  2147483648 cpu:               0.9 elap:               0.1
 (Enter /data/home/wyx/g16/l202.exe)
                          Input orientation:                          
 ---------------------------------------------------------------------
 Center     Atomic      Atomic             Coordinates (Angstroms)
 Number     Number       Type             X           Y           Z
 ---------------------------------------------------------------------
      1          8           0        2.840157   -1.574847    0.017213
      2          8           0       -3.430102   -1.653909   -0.180776
      3          7           0       -0.670481    1.518778   -0.152961
      4          1           0       -0.982798    2.480069   -0.201647
      5          6           0       -1.250212   -0.763812   -0.197036
      6          6           0        0.675016    1.341581   -0.008681
      7          6           0       -1.643876    0.584691   -0.228405
      8          6           0       -2.209603   -1.850015   -0.197822
      9          6           0        0.189724   -1.077691   -0.160822
     10          1           0        0.395095   -1.875606    0.563843
     11          1           0        0.480365   -1.578977   -1.104718
     12          6           0        1.146704    0.026227    0.051460
     13          6           0        2.518601   -0.403432    0.259783
     14          6           0       -3.033737    1.108055   -0.358579
     15          1           0       -3.028151    2.195914   -0.431924
     16          1           0       -3.525023    0.702609   -1.240708
     17          1           0       -3.646830    0.820441    0.492948
     18          6           0       -1.703276   -3.273564   -0.183677
     19          1           0       -2.501282   -3.926190   -0.527291
     20          1           0       -0.823489   -3.429265   -0.803787
     21          1           0       -1.442388   -3.568728    0.835027
     22          6           0        3.572536    0.524789    0.814524
     23          1           0        4.076737    1.061124    0.007644
     24          1           0        3.175876    1.256905    1.513154
     25          1           0        4.316988   -0.087046    1.319777
     26          6           0        1.470748    2.604810    0.024276
     27          1           0        1.751247    2.896000    1.038320
     28          1           0        2.384308    2.512972   -0.557335
     29          1           0        0.897148    3.428116   -0.401805
 ---------------------------------------------------------------------
                    Distance matrix (angstroms):
                    1          2          3          4          5
     1  O    0.000000
     2  O    6.273882   0.000000
     3  N    4.682313   4.205024   0.000000
     4  H    5.577206   4.804114   1.011925   0.000000
     5  C    4.175500   2.354667   2.355472   3.254888   0.000000
     6  C    3.632363   5.084739   1.364763   2.020331   2.859136
     7  C    4.983020   2.864298   1.351188   2.007535   1.405139
     8  C    5.061821   1.236271   3.704008   4.500521   1.449230
     9  C    2.702528   3.665456   2.735263   3.746216   1.474194
    10  H    2.523408   3.903298   3.629201   4.632113   2.126513
    11  H    2.612923   4.018835   3.438950   4.408201   2.117375
    12  C    2.330750   4.880978   2.360436   3.258862   2.535965
    13  C    1.238730   6.094658   3.746397   4.559308   3.813464
    14  C    6.468525   2.795919   2.407478   2.472529   2.590549
    15  H    6.989807   3.878889   2.468794   2.077797   3.460667
    16  H    6.876386   2.585661   3.161920   3.271379   2.900760
    17  H    6.931430   2.573574   3.124664   3.214637   2.954609
    18  C    4.854769   2.367534   4.902464   5.798595   2.550353
    19  H    5.861422   2.479121   5.756703   6.591813   3.416852
    20  H    4.187506   3.214726   4.993007   5.942069   2.766745
    21  H    4.794223   2.940985   5.239721   6.154174   2.994936
    22  C    2.362320   7.400965   4.463993   5.060315   5.093392
    23  H    2.911626   7.984957   4.771930   5.258907   5.634596
    24  H    3.220150   7.414930   4.199878   4.661678   5.157354
    25  H    2.468047   8.045130   5.442653   6.082149   5.809686
    26  C    4.398280   6.495927   2.407434   2.467081   4.335922
    27  H    4.713476   7.002446   3.029960   3.030762   4.891736
    28  H    4.153091   7.163244   3.237851   3.386000   4.906818
    29  H    5.383354   6.678392   2.482933   2.114959   4.714376
                    6          7          8          9         10
     6  C    0.000000
     7  C    2.449167   0.000000
     8  C    4.306168   2.499755   0.000000
     9  C    2.472151   2.475918   2.520838   0.000000
    10  H    3.279700   3.292130   2.713898   1.097262   0.000000
    11  H    3.125515   3.156229   2.851640   1.107565   1.696866
    12  C    1.398665   2.859640   3.853209   1.476316   2.108180
    13  C    2.552636   4.305918   4.965674   2.460732   2.601735
    14  C    3.732534   1.490828   3.074934   3.899653   4.637886
    15  H    3.823933   2.133935   4.134533   4.598337   5.411787
    16  H    4.423404   2.139480   3.055132   4.258517   5.027019
    17  H    4.381960   2.141904   3.110325   4.330065   4.859100
    18  C    5.194849   3.858971   1.510979   2.899281   2.629873
    19  H    6.173106   4.601361   2.122293   3.935703   3.712744
    20  H    5.063465   4.137142   2.186901   2.640058   2.401919
    21  H    5.413536   4.292129   2.146944   3.140186   2.513274
    22  C    3.120967   5.319985   6.332272   3.868160   3.990096
    23  H    3.413302   5.745269   6.930730   4.439795   4.742175
    24  H    2.928729   5.168647   6.448548   4.143626   4.294946
    25  H    4.131554   6.195159   6.928749   4.495315   4.376257
    26  C    1.493326   3.720969   5.782714   3.903344   4.639212
    27  H    2.161181   4.298093   6.304049   4.434695   4.983222
    28  H    2.143562   4.478027   6.345780   4.226853   4.947083
    29  H    2.134834   3.817321   6.127983   4.567364   5.414241
                   11         12         13         14         15
    11  H    0.000000
    12  C    2.087447   0.000000
    13  C    2.719959   1.452621   0.000000
    14  C    4.486176   4.337577   5.787523   0.000000
    15  H    5.197320   4.729759   6.164537   1.090343   0.000000
    16  H    4.611644   4.894101   6.324570   1.088072   1.769456
    17  H    5.034231   4.878899   6.290053   1.087981   1.769203
    18  C    2.913457   4.366497   5.124311   4.582500   5.633126
    19  H    3.838365   5.409654   6.182923   5.065135   6.145473
    20  H    2.283454   4.068603   4.632107   5.066624   6.053219
    21  H    3.379157   4.499008   5.102885   5.082262   6.111539
    22  C    4.203670   2.591427   1.510004   6.734925   6.922092
    23  H    4.597975   3.107736   2.153204   7.120054   7.208356
    24  H    4.707575   2.787231   2.181666   6.487283   6.569248
    25  H    4.777417   3.416454   2.111370   7.634023   7.888690
    26  C    4.445173   2.599006   3.194210   4.762062   4.540419
    27  H    5.121833   3.094344   3.475803   5.295672   5.049196
    28  H    4.546281   2.843624   3.031687   5.600760   5.423188
    29  H    5.073340   3.441014   4.212786   4.564691   4.114268
                   16         17         18         19         20
    16  H    0.000000
    17  H    1.741920   0.000000
    18  C    4.499559   4.582150   0.000000
    19  H    4.794037   4.988354   1.086648   0.000000
    20  H    4.955963   5.264293   1.087568   1.771546   0.000000
    21  H    5.185592   4.923554   1.092219   1.762086   1.757327
    22  C    7.391275   7.232570   6.577088   7.648722   6.130131
    23  H    7.711917   7.742541   7.227356   8.272230   6.695837
    24  H    7.265882   6.912354   6.870990   7.953491   6.582046
    25  H    8.287145   8.057889   6.975518   8.039869   6.488795
    26  C    5.493294   5.439966   6.683783   7.663890   6.508400
    27  H    6.151744   5.809011   7.175690   8.190080   7.073302
    28  H    6.218087   6.351565   7.094502   8.082865   6.757284
    29  H    5.261914   5.314912   7.191822   8.102524   7.081374
                   21         22         23         24         25
    21  H    0.000000
    22  C    6.473543   0.000000
    23  H    7.251264   1.092213   0.000000
    24  H    6.713788   1.086930   1.765344   0.000000
    25  H    6.747407   1.088040   1.760031   1.773622   0.000000
    26  C    6.874318   3.060799   3.028931   2.634590   4.126196
    27  H    7.213414   2.998303   3.136394   2.222986   3.944719
    28  H    7.319108   2.691980   2.300300   2.547785   3.744181
    29  H    7.480575   4.131158   3.984983   3.684267   5.197645
                   26         27         28         29
    26  C    0.000000
    27  H    1.091676   0.000000
    28  H    1.086875   1.758861   0.000000
    29  H    1.090135   1.756870   1.753090   0.000000
 Stoichiometry    C11H15NO2
 Framework group  C1[X(C11H15NO2)]
 Deg. of freedom    81
 Full point group                 C1      NOp   1
 RotChk:  IX=0 Diff= 2.76D-16
 Largest Abelian subgroup         C1      NOp   1
 Largest concise Abelian subgroup C1      NOp   1
                         Standard orientation:                         
 ---------------------------------------------------------------------
 Center     Atomic      Atomic             Coordinates (Angstroms)
 Number     Number       Type             X           Y           Z
 ---------------------------------------------------------------------
      1          8           0        2.282469   -2.287186   -0.286808
      2          8           0       -3.634502   -0.262560    0.215123
      3          7           0        0.017773    1.804273   -0.051923
      4          1           0        0.043333    2.815829   -0.061563
      5          6           0       -1.296428   -0.150463   -0.040415
      6          6           0        1.232774    1.182745   -0.059263
      7          6           0       -1.215128    1.252204   -0.022196
      8          6           0       -2.559590   -0.853555    0.061322
      9          6           0       -0.050141   -0.927757   -0.166232
     10          1           0       -0.050870   -1.777677    0.527757
     11          1           0       -0.044305   -1.457854   -1.138684
     12          6           0        1.238636   -0.215906   -0.057452
     13          6           0        2.400164   -1.086664   -0.005122
     14          6           0       -2.353890    2.213983    0.005521
     15          1           0       -1.990756    3.239757   -0.063548
     16          1           0       -3.041452    2.032351   -0.817989
     17          1           0       -2.936221    2.112388    0.918906
     18          6           0       -2.562420   -2.363763    0.013121
     19          1           0       -3.564356   -2.698152   -0.242051
     20          1           0       -1.855389   -2.778193   -0.701833
     21          1           0       -2.311787   -2.770813    0.995178
     22          6           0        3.756164   -0.586762    0.432454
     23          1           0        4.324750   -0.216438   -0.423408
     24          1           0        3.703216    0.206222    1.173932
     25          1           0        4.299876   -1.432129    0.849063
     26          6           0        2.405540    2.105817   -0.110062
     27          1           0        2.871057    2.244682    0.867572
     28          1           0        3.169635    1.738686   -0.790261
     29          1           0        2.101028    3.090119   -0.466177
 ---------------------------------------------------------------------
 Rotational constants (GHZ):           1.0716158           0.4894092           0.3421197
 Leave Link  202 at Fri Jan 23 16:57:53 2026, MaxMem=  2147483648 cpu:               0.0 elap:               0.0
 (Enter /data/home/wyx/g16/l301.exe)
 Standard basis: TZVP (5D, 7F)
 Ernie: Thresh=  0.10000D-02 Tol=  0.10000D-05 Strict=F.
 There are   370 symmetry adapted cartesian basis functions of A   symmetry.
 There are   356 symmetry adapted basis functions of A   symmetry.
   356 basis functions,   610 primitive gaussians,   370 cartesian basis functions
    52 alpha electrons       52 beta electrons
       nuclear repulsion energy       898.4678281238 Hartrees.
 IExCor=20419 DFT=T Ex+Corr=CAM-B3LYP ExCW=0 ScaHFX=  1.000000
 ScaDFX=  1.000000  1.000000  1.000000  0.810000 ScalE2=  1.000000  1.000000
 IRadAn=      5 IRanWt=     -1 IRanGd=            0 ICorTp=0 IEmpDi=141
 HFx  wShort=  0.000000 wLong=  0.330000 cFull=  0.190000 cShort=  0.000000 cLong=  0.460000
 DFx  wShort=  0.000000 wLong=  0.330000 cFull=  0.190000 cShort=  0.000000 cLong=  0.460000
 NAtoms=   29 NActive=   29 NUniq=   29 SFac= 1.00D+00 NAtFMM=   60 NAOKFM=F Big=F
 Integral buffers will be    131072 words long.
 Raffenetti 1 integral format.
 Two-electron integral symmetry is turned on.
 R6Disp:  Grimme-D3(BJ) Dispersion energy=       -0.0261022539 Hartrees.
 Nuclear repulsion after empirical dispersion term =      898.4417258700 Hartrees.
 ------------------------------------------------------------------------------
 Polarizable Continuum Model (PCM)
 =================================
 Model                : PCM.
 Atomic radii         : UFF (Universal Force Field).
 Polarization charges : Total charges.
 Charge compensation  : None.
 Solution method      : On-the-fly selection.
 Cavity type          : Scaled VdW (van der Waals Surface) (Alpha=1.100).
 Cavity algorithm     : GePol (No added spheres)
                        Default sphere list used, NSphG=   29.
                        Lebedev-Laikov grids with approx.  5.0 points / Ang**2.
                        Smoothing algorithm: York/Karplus (Gamma=1.0000).
                        Polarization charges: spherical gaussians, with
                                              point-specific exponents (IZeta= 3).
                        Self-potential: point-specific (ISelfS= 7).
                        Self-field    : sphere-specific E.n sum rule (ISelfD= 2).
 1st derivatives      : Analytical E(r).r(x)/FMM algorithm (CHGder, D1EAlg=3).
                        Cavity 1st derivative terms included.
 Solvent              : TetraHydroFuran, Eps=   7.425700 Eps(inf)=   1.974025
 ------------------------------------------------------------------------------
 GePol: Number of generator spheres                  =      29
 GePol: Total number of spheres                      =      29
 GePol: Number of exposed spheres                    =      29 (100.00%)
 GePol: Number of points                             =    2096
 GePol: Average weight of points                     =       0.13
 GePol: Minimum weight of points                     =   0.41D-10
 GePol: Maximum weight of points                     =    0.20577
 GePol: Number of points with low weight             =     125
 GePol: Fraction of low-weight points (<1% of avg)   =       5.96%
 GePol: Cavity surface area                          =    269.664 Ang**2
 GePol: Cavity volume                                =    287.654 Ang**3
 Leave Link  301 at Fri Jan 23 16:57:53 2026, MaxMem=  2147483648 cpu:               0.6 elap:               0.0
 (Enter /data/home/wyx/g16/l302.exe)
 NPDir=0 NMtPBC=     1 NCelOv=     1 NCel=       1 NClECP=     1 NCelD=      1
         NCelK=      1 NCelE2=     1 NClLst=     1 CellRange=     0.0.
 One-electron integrals computed using PRISM.
 One-electron integral symmetry used in STVInt
 NBasis=   356 RedAO= T EigKep=  3.89D-05  NBF=   356
 NBsUse=   356 1.00D-06 EigRej= -1.00D+00 NBFU=   356
 Precomputing XC quadrature grid using
 IXCGrd= 4 IRadAn=           5 IRanWt=          -1 IRanGd=           0 AccXCQ= 0.00D+00.
 Generated NRdTot=       0 NPtTot=           0 NUsed=           0 NTot=          32
 NSgBfM=   366   366   366   366   366 MxSgAt=    29 MxSgA2=    29.
 Leave Link  302 at Fri Jan 23 16:57:53 2026, MaxMem=  2147483648 cpu:               3.2 elap:               0.2
 (Enter /data/home/wyx/g16/l303.exe)
 DipDrv:  MaxL=1.
 Leave Link  303 at Fri Jan 23 16:57:54 2026, MaxMem=  2147483648 cpu:               0.6 elap:               0.0
 (Enter /data/home/wyx/g16/l308.exe)
 Leave Link  308 at Fri Jan 23 16:57:54 2026, MaxMem=  2147483648 cpu:               0.7 elap:               0.1
 (Enter /data/home/wyx/g16/l401.exe)
 Initial guess from the checkpoint file:  "DDL-S2-cLR-1.chk"
 B after Tr=     0.000000    0.000000    0.000000
         Rot=    1.000000   -0.000000   -0.000000    0.000000 Ang=   0.00 deg.
 Guess basis will be translated and rotated to current coordinates.
 JPrj=2 DoOrth=T DoCkMO=T.
 Leave Link  401 at Fri Jan 23 16:57:54 2026, MaxMem=  2147483648 cpu:               2.2 elap:               0.2
 (Enter /data/home/wyx/g16/l502.exe)
 Integral symmetry usage will be decided dynamically.
 Closed shell SCF:
 Using DIIS extrapolation, IDIIS=  1040.
 NGot=  2147483648 LenX=  2147200095 LenY=  2147062754
 Requested convergence on RMS density matrix=1.00D-08 within 128 cycles.
 Requested convergence on MAX density matrix=1.00D-06.
 Requested convergence on             energy=1.00D-06.
 No special actions if energy rises.
 Fock matrices will be formed incrementally for  20 cycles.

 Cycle   1  Pass 1  IDiag  1:
 FoFJK:  IHMeth= 1 ICntrl=       0 DoSepK=T KAlg= 0 I1Cent=           0 FoldK=F
 IRaf=         1 NMat=       1 IRICut=       1 DoRegI=T DoRafI=F ISym2E= 0 IDoP0=0 IntGTp=1.
 FoFCou: FMM=F IPFlag=           0 FMFlag=      100000 FMFlg1=           0
         NFxFlg=           0 DoJE=T BraDBF=F KetDBF=F FulRan=T
         wScrn=  0.000000 ICntrl=       500 IOpCl=  0 I1Cent=           0 NGrid=           0
         NMat0=    1 NMatS0=      1 NMatT0=    0 NMatD0=    1 NMtDS0=    0 NMtDT0=    0
 Symmetry not used in FoFCou.
 Inv3:  Mode=1 IEnd=    13179648.
 Iteration    1 A*A^-1 deviation from unit magnitude is 2.66D-15 for    360.
 Iteration    1 A*A^-1 deviation from orthogonality  is 1.89D-15 for   1908     94.
 Iteration    1 A^-1*A deviation from unit magnitude is 2.89D-15 for   1525.
 Iteration    1 A^-1*A deviation from orthogonality  is 7.60D-15 for   1369   1339.
 E= -633.318371524347    
 DIIS: error= 1.77D-08 at cycle   1 NSaved=   1.
 NSaved= 1 IEnMin= 1 EnMin= -633.318371524347     IErMin= 1 ErrMin= 1.77D-08
 ErrMax= 1.77D-08  0.00D+00 EMaxC= 1.00D-01 BMatC= 7.95D-14 BMatP= 7.95D-14
 IDIUse=1 WtCom= 1.00D+00 WtEn= 0.00D+00
 Coeff-Com:  0.100D+01
 Coeff:      0.100D+01
 Gap=     0.216 Goal=   None    Shift=    0.000
 RMSDP=4.26D-09 MaxDP=1.44D-07              OVMax= 1.94D-07

 Error on total polarization charges =  0.01441
 SCF Done:  E(RCAM-B3LYP) =  -633.318371524     A.U. after    1 cycles
            NFock=  1  Conv=0.43D-08     -V/T= 2.0043
 KE= 6.305865505988D+02 PE=-3.272770649553D+03 EE= 1.110424001560D+03
 Leave Link  502 at Fri Jan 23 16:58:00 2026, MaxMem=  2147483648 cpu:              85.4 elap:               5.6
 (Enter /data/home/wyx/g16/l801.exe)
 DoSCS=F DFT=T ScalE2(SS,OS)=  1.000000  1.000000
 ExpMin= 9.52D-02 ExpMax= 2.70D+04 ExpMxC= 9.22D+02 IAcc=3 IRadAn=         5 AccDes= 0.00D+00
 HarFok:  IExCor=  205 AccDes= 0.00D+00 IRadAn=         5 IDoV=-2 UseB2=F ITyADJ=14
 ICtDFT= 12500011 ScaDFX=  1.000000  1.000000  1.000000  1.000000
 Largest valence mixing into a core orbital is  5.59D-05
 Largest core mixing into a valence orbital is  1.14D-05
 Range of M.O.s used for correlation:    15   356
 NBasis=   356 NAE=    52 NBE=    52 NFC=    14 NFV=     0
 NROrb=    342 NOA=    38 NOB=    38 NVA=   304 NVB=   304

 **** Warning!!: The largest alpha MO coefficient is  0.60996862D+02

 Leave Link  801 at Fri Jan 23 16:58:00 2026, MaxMem=  2147483648 cpu:               1.0 elap:               0.1
 (Enter /data/home/wyx/g16/l914.exe)
 RHF ground state
 Two-electron integrals replicated using symmetry.
 MDV=  2147483648 DFT=T DoStab=F Mixed=T DoRPA=T DoScal=F NonHer=T
 NEqPCM:  Using equilibrium solvation (IEInf=0, Eps=   7.4257, EpsInf=   1.9740)
 Making orbital integer symmetry assigments:
 Orbital symmetries:
       Occupied  (A) (A) (A) (A) (A) (A) (A) (A) (A) (A) (A) (A)
                 (A) (A) (A) (A) (A) (A) (A) (A) (A) (A) (A) (A)
                 (A) (A) (A) (A) (A) (A) (A) (A) (A) (A) (A) (A)
                 (A) (A) (A) (A) (A) (A) (A) (A) (A) (A) (A) (A)
                 (A) (A) (A) (A)
       Virtual   (A) (A) (A) (A) (A) (A) (A) (A) (A) (A) (A) (A)
                 (A) (A) (A) (A) (A) (A) (A) (A) (A) (A) (A) (A)
                 (A) (A) (A) (A) (A) (A) (A) (A) (A) (A) (A) (A)
                 (A) (A) (A) (A) (A) (A) (A) (A) (A) (A) (A) (A)
                 (A) (A) (A) (A) (A) (A) (A) (A) (A) (A) (A) (A)
                 (A) (A) (A) (A) (A) (A) (A) (A) (A) (A) (A) (A)
                 (A) (A) (A) (A) (A) (A) (A) (A) (A) (A) (A) (A)
                 (A) (A) (A) (A) (A) (A) (A) (A) (A) (A) (A) (A)
                 (A) (A) (A) (A) (A) (A) (A) (A) (A) (A) (A) (A)
                 (A) (A) (A) (A) (A) (A) (A) (A) (A) (A) (A) (A)
                 (A) (A) (A) (A) (A) (A) (A) (A) (A) (A) (A) (A)
                 (A) (A) (A) (A) (A) (A) (A) (A) (A) (A) (A) (A)
                 (A) (A) (A) (A) (A) (A) (A) (A) (A) (A) (A) (A)
                 (A) (A) (A) (A) (A) (A) (A) (A) (A) (A) (A) (A)
                 (A) (A) (A) (A) (A) (A) (A) (A) (A) (A) (A) (A)
                 (A) (A) (A) (A) (A) (A) (A) (A) (A) (A) (A) (A)
                 (A) (A) (A) (A) (A) (A) (A) (A) (A) (A) (A) (A)
                 (A) (A) (A) (A) (A) (A) (A) (A) (A) (A) (A) (A)
                 (A) (A) (A) (A) (A) (A) (A) (A) (A) (A) (A) (A)
                 (A) (A) (A) (A) (A) (A) (A) (A) (A) (A) (A) (A)
                 (A) (A) (A) (A) (A) (A) (A) (A) (A) (A) (A) (A)
                 (A) (A) (A) (A) (A) (A) (A) (A) (A) (A) (A) (A)
                 (A) (A) (A) (A) (A) (A) (A) (A) (A) (A) (A) (A)
                 (A) (A) (A) (A) (A) (A) (A) (A) (A) (A) (A) (A)
                 (A) (A) (A) (A) (A) (A) (A) (A) (A) (A) (A) (A)
                 (A) (A) (A) (A)
 PCM Corrected Linear-Response:
 Compute the excitation energies in the ground state reaction field.
    24 initial guesses have been made.
 Convergence on wavefunction:    0.000001000000000
 Davidson Disk Diagonalization:  ConvIn= 1.00D-06 SkipCon=T Conv= 1.00D-06.
 Max sub-space:  2000 roots to seek:    24 dimension of matrix:        23104
 Iteration     1 Dimension    24 NMult     0 NNew     24
 CISAX will form    24 AO SS matrices at one time.
 NMat=    24 NSing=    24 JSym2X= 0.
 FoFJK:  IHMeth= 1 ICntrl=       0 DoSepK=T KAlg= 0 I1Cent=           0 FoldK=F
 IRaf=         1 NMat=      48 IRICut=       1 DoRegI=T DoRafI=F ISym2E= 0 IDoP0=3 IntGTp=3.
 FoFCou: FMM=F IPFlag=           0 FMFlag=      100000 FMFlg1=           0
         NFxFlg=           0 DoJE=F BraDBF=F KetDBF=F FulRan=T
         wScrn=  0.000000 ICntrl=       500 IOpCl=  0 I1Cent=           0 NGrid=           0
         NMat0=   24 NMatS0=     24 NMatT0=    0 NMatD0=   24 NMtDS0=    0 NMtDT0=    0
 Symmetry not used in FoFCou.
 New state      2 was old state      3
 New state      3 was old state      4
 New state      4 was old state      2
 New state      5 was old state      6
 New state      6 was old state      5
 Excitation Energies [eV] at current iteration:
 Root      1 :     3.470678243350672
 Root      2 :     4.131546256264746
 Root      3 :     4.350917367264041
 Root      4 :     5.261694791803192
 Root      5 :     5.871930022843935
 Root      6 :     6.248977886337115
 Root      7 :     6.423389916695023
 Root      8 :     6.665603150467085
 Root      9 :     6.775048362855698
 Root     10 :     6.941707918554643
 Root     11 :     7.042349886246269
 Root     12 :     7.259113039535017
 Root     13 :     7.284466978781603
 Root     14 :     7.318333484257003
 Root     15 :     7.694993390461235
 Root     16 :     7.909834574164982
 Root     17 :     7.975719698881896
 Root     18 :     8.086666650124064
 Root     19 :     8.101052322791155
 Root     20 :     8.304149764158957
 Root     21 :     8.351230513676489
 Root     22 :     8.529488932627748
 Root     23 :     8.623511185106739
 Root     24 :     8.811400762085766
 Iteration     2 Dimension    36 NMult    24 NNew     12
 CISAX will form    12 AO SS matrices at one time.
 NMat=    12 NSing=    12 JSym2X= 0.
 Root      1 not converged, maximum delta is    0.037102950218635
 Root      2 not converged, maximum delta is    0.075831273258328
 Root      3 not converged, maximum delta is    0.086788694087572
 Root      4 not converged, maximum delta is    0.181482362563944
 New state      5 was old state      6
 Root      5 not converged, maximum delta is    0.171358321771349
 New state      6 was old state      5
 Root      6 not converged, maximum delta is    0.076266323279811
 Excitation Energies [eV] at current iteration:
 Root      1 :     3.001495488132538   Change is   -0.469182755218134
 Root      2 :     3.919687857548093   Change is   -0.211858398716653
 Root      3 :     4.095268724751234   Change is   -0.255648642512808
 Root      4 :     4.952368967827316   Change is   -0.309325823975876
 Root      5 :     5.435153684631195   Change is   -0.813824201705919
 Root      6 :     5.770063319821995   Change is   -0.101866703021939
 Iteration     3 Dimension    48 NMult    36 NNew     12
 CISAX will form    12 AO SS matrices at one time.
 NMat=    12 NSing=    12 JSym2X= 0.
 Root      1 not converged, maximum delta is    0.008219542716525
 Root      2 not converged, maximum delta is    0.017478586609269
 Root      3 not converged, maximum delta is    0.013445793726354
 Root      4 not converged, maximum delta is    0.023173557294973
 Root      5 not converged, maximum delta is    0.026444664447142
 Root      6 not converged, maximum delta is    0.006751971953482
 Excitation Energies [eV] at current iteration:
 Root      1 :     2.981808303458738   Change is   -0.019687184673800
 Root      2 :     3.907013082888607   Change is   -0.012674774659486
 Root      3 :     4.080968968209286   Change is   -0.014299756541948
 Root      4 :     4.932961995159359   Change is   -0.019406972667957
 Root      5 :     5.390399880502901   Change is   -0.044753804128294
 Root      6 :     5.765523756271120   Change is   -0.004539563550874
 Iteration     4 Dimension    60 NMult    48 NNew     12
 CISAX will form    12 AO SS matrices at one time.
 NMat=    12 NSing=    12 JSym2X= 0.
 Root      1 not converged, maximum delta is    0.002629929108751
 Root      2 not converged, maximum delta is    0.001905124838223
 Root      3 not converged, maximum delta is    0.002491487924533
 Root      4 not converged, maximum delta is    0.002802956277958
 Root      5 not converged, maximum delta is    0.003842801987326
 Root      6 not converged, maximum delta is    0.001978756052575
 Excitation Energies [eV] at current iteration:
 Root      1 :     2.980359056909097   Change is   -0.001449246549641
 Root      2 :     3.906460851271069   Change is   -0.000552231617538
 Root      3 :     4.079957133440229   Change is   -0.001011834769057
 Root      4 :     4.930941342376271   Change is   -0.002020652783088
 Root      5 :     5.384996473389152   Change is   -0.005403407113749
 Root      6 :     5.765238607614418   Change is   -0.000285148656703
 Iteration     5 Dimension    72 NMult    60 NNew     12
 CISAX will form    12 AO SS matrices at one time.
 NMat=    12 NSing=    12 JSym2X= 0.
 Root      1 not converged, maximum delta is    0.000735884445297
 Root      2 not converged, maximum delta is    0.000368318465060
 Root      3 not converged, maximum delta is    0.000468630662227
 Root      4 not converged, maximum delta is    0.000651959068649
 Root      5 not converged, maximum delta is    0.001174702714036
 Root      6 not converged, maximum delta is    0.000351327683762
 Excitation Energies [eV] at current iteration:
 Root      1 :     2.980275227548105   Change is   -0.000083829360992
 Root      2 :     3.906413965095755   Change is   -0.000046886175314
 Root      3 :     4.079910209307450   Change is   -0.000046924132780
 Root      4 :     4.930793264195430   Change is   -0.000148078180841
 Root      5 :     5.384570096699045   Change is   -0.000426376690106
 Root      6 :     5.765216713066232   Change is   -0.000021894548186
 Iteration     6 Dimension    84 NMult    72 NNew     12
 CISAX will form    12 AO SS matrices at one time.
 NMat=    12 NSing=    12 JSym2X= 0.
 Root      1 not converged, maximum delta is    0.000131267535549
 Root      2 not converged, maximum delta is    0.000139615166701
 Root      3 not converged, maximum delta is    0.000112193035732
 Root      4 not converged, maximum delta is    0.000138083492789
 Root      5 not converged, maximum delta is    0.000549793000128
 Root      6 not converged, maximum delta is    0.000098727079635
 Excitation Energies [eV] at current iteration:
 Root      1 :     2.980271177630292   Change is   -0.000004049917813
 Root      2 :     3.906411257359553   Change is   -0.000002707736202
 Root      3 :     4.079907356995648   Change is   -0.000002852311802
 Root      4 :     4.930784013665644   Change is   -0.000009250529786
 Root      5 :     5.384536582030947   Change is   -0.000033514668098
 Root      6 :     5.765214783205238   Change is   -0.000001929860994
 Iteration     7 Dimension    96 NMult    84 NNew     12
 CISAX will form    12 AO SS matrices at one time.
 NMat=    12 NSing=    12 JSym2X= 0.
 Root      1 not converged, maximum delta is    0.000013910727636
 Root      2 not converged, maximum delta is    0.000032231878938
 Root      3 not converged, maximum delta is    0.000035289431915
 Root      4 not converged, maximum delta is    0.000046205621902
 Root      5 not converged, maximum delta is    0.000272554202973
 Root      6 not converged, maximum delta is    0.000048828364573
 Excitation Energies [eV] at current iteration:
 Root      1 :     2.980270995465601   Change is   -0.000000182164691
 Root      2 :     3.906411111311387   Change is   -0.000000146048166
 Root      3 :     4.079907167578597   Change is   -0.000000189417051
 Root      4 :     4.930783342424150   Change is   -0.000000671241494
 Root      5 :     5.384532886556318   Change is   -0.000003695474629
 Root      6 :     5.765214618062990   Change is   -0.000000165142247
 Iteration     8 Dimension   108 NMult    96 NNew     12
 CISAX will form    12 AO SS matrices at one time.
 NMat=    12 NSing=    12 JSym2X= 0.
 Root      1 not converged, maximum delta is    0.000002086848167
 Root      2 not converged, maximum delta is    0.000004277945297
 Root      3 not converged, maximum delta is    0.000004176310217
 Root      4 not converged, maximum delta is    0.000020177789421
 Root      5 not converged, maximum delta is    0.000050717545946
 Root      6 not converged, maximum delta is    0.000012497672873
 Excitation Energies [eV] at current iteration:
 Root      1 :     2.980270988436008   Change is   -0.000000007029593
 Root      2 :     3.906411105380084   Change is   -0.000000005931303
 Root      3 :     4.079907158166306   Change is   -0.000000009412290
 Root      4 :     4.930783287636793   Change is   -0.000000054787357
 Root      5 :     5.384532622531964   Change is   -0.000000264024354
 Root      6 :     5.765214604513101   Change is   -0.000000013549889
 Iteration     9 Dimension   120 NMult   108 NNew     12
 CISAX will form    12 AO SS matrices at one time.
 NMat=    12 NSing=    12 JSym2X= 0.
 Root      1 has converged.
 Root      2 has converged.
 Root      3 has converged.
 Root      4 not converged, maximum delta is    0.000005118070592
 Root      5 not converged, maximum delta is    0.000006469641466
 Root      6 not converged, maximum delta is    0.000002595783924
 Excitation Energies [eV] at current iteration:
 Root      1 :     2.980270988175423   Change is   -0.000000000260585
 Root      2 :     3.906411105155899   Change is   -0.000000000224185
 Root      3 :     4.079907157861609   Change is   -0.000000000304698
 Root      4 :     4.930783284494681   Change is   -0.000000003142112
 Root      5 :     5.384532608621657   Change is   -0.000000013910307
 Root      6 :     5.765214603528986   Change is   -0.000000000984115
 Iteration    10 Dimension   126 NMult   120 NNew      6
 CISAX will form     6 AO SS matrices at one time.
 NMat=     6 NSing=     6 JSym2X= 0.
 Root      1 has converged.
 Root      2 has converged.
 Root      3 has converged.
 Root      4 not converged, maximum delta is    0.000001030713883
 Root      5 not converged, maximum delta is    0.000001345879211
 Root      6 has converged.
 Excitation Energies [eV] at current iteration:
 Root      1 :     2.980270988174347   Change is   -0.000000000001076
 Root      2 :     3.906411105153880   Change is   -0.000000000002020
 Root      3 :     4.079907157858726   Change is   -0.000000000002881
 Root      4 :     4.930783284339795   Change is   -0.000000000154886
 Root      5 :     5.384532607939420   Change is   -0.000000000682237
 Root      6 :     5.765214603463651   Change is   -0.000000000065335
 Iteration    11 Dimension   130 NMult   126 NNew      4
 CISAX will form     4 AO SS matrices at one time.
 NMat=     4 NSing=     4 JSym2X= 0.
 Root      1 has converged.
 Root      2 has converged.
 Root      3 has converged.
 Root      4 has converged.
 Root      5 has converged.
 Root      6 has converged.
 Excitation Energies [eV] at current iteration:
 Root      1 :     2.980270988174292   Change is   -0.000000000000055
 Root      2 :     3.906411105153795   Change is   -0.000000000000085
 Root      3 :     4.079907157858666   Change is   -0.000000000000060
 Root      4 :     4.930783284330609   Change is   -0.000000000009186
 Root      5 :     5.384532607905374   Change is   -0.000000000034046
 Root      6 :     5.765214603462837   Change is   -0.000000000000813
 Convergence achieved on expansion vectors.
 PCM Corrected Linear-Response:
 The state of interest is root number   2
 Excitation energy =    3.9064 eV, Total energy =  -633.174813558    
 Recompute the excitation energies using the linear response reaction field.
 Convergence on wavefunction:    0.000001000000000
 Davidson Disk Diagonalization:  ConvIn= 1.00D-06 SkipCon=T Conv= 1.00D-06.
 Max sub-space:  2000 roots to seek:     6 dimension of matrix:        23104
 Iteration     1 Dimension     6 NMult     0 NNew      6
 CISAX will form     6 AO SS matrices at one time.
 NMat=     6 NSing=     6 JSym2X= 0.
 Excitation Energies [eV] at current iteration:
 Root      1 :     3.100777352977958
 Root      2 :     3.931955317170254
 Root      3 :     4.106539794599795
 Root      4 :     5.007516696847568
 Root      5 :     5.576086394916763
 Root      6 :     5.741461457307881
 Iteration     2 Dimension    18 NMult     6 NNew     12
 CISAX will form    12 AO SS matrices at one time.
 NMat=    12 NSing=    12 JSym2X= 0.
 Root      1 not converged, maximum delta is    0.022691306008666
 Root      2 not converged, maximum delta is    0.002144188215379
 Root      3 not converged, maximum delta is    0.006531694000038
 Root      4 not converged, maximum delta is    0.210635985980123
 Root      5 not converged, maximum delta is    0.265333896200023
 Root      6 not converged, maximum delta is    0.087163610826953
 Excitation Energies [eV] at current iteration:
 Root      1 :     2.866366873652305   Change is   -0.234410479325652
 Root      2 :     3.902536425006513   Change is   -0.029418892163741
 Root      3 :     4.075042234713472   Change is   -0.031497559886323
 Root      4 :     4.812373700521388   Change is   -0.195142996326179
 Root      5 :     5.251053112456530   Change is   -0.325033282460232
 Root      6 :     5.723158777112640   Change is   -0.018302680195241
 Iteration     3 Dimension    30 NMult    18 NNew     12
 CISAX will form    12 AO SS matrices at one time.
 NMat=    12 NSing=    12 JSym2X= 0.
 Root      1 not converged, maximum delta is    0.002327293601213
 Root      2 not converged, maximum delta is    0.000828943175286
 Root      3 not converged, maximum delta is    0.001133813567528
 Root      4 not converged, maximum delta is    0.011505671165360
 Root      5 not converged, maximum delta is    0.014362830601596
 Root      6 not converged, maximum delta is    0.008844419071861
 Excitation Energies [eV] at current iteration:
 Root      1 :     2.863604580256313   Change is   -0.002762293395992
 Root      2 :     3.902279039400304   Change is   -0.000257385606210
 Root      3 :     4.074751238435843   Change is   -0.000290996277629
 Root      4 :     4.804894418424102   Change is   -0.007479282097287
 Root      5 :     5.241904462972690   Change is   -0.009148649483840
 Root      6 :     5.722002806366294   Change is   -0.001155970746345
 Iteration     4 Dimension    42 NMult    30 NNew     12
 CISAX will form    12 AO SS matrices at one time.
 NMat=    12 NSing=    12 JSym2X= 0.
 Root      1 not converged, maximum delta is    0.001539314644035
 Root      2 not converged, maximum delta is    0.000220996981262
 Root      3 not converged, maximum delta is    0.000205777322481
 Root      4 not converged, maximum delta is    0.002566633359255
 Root      5 not converged, maximum delta is    0.005058053484801
 Root      6 not converged, maximum delta is    0.010891357005714
 Excitation Energies [eV] at current iteration:
 Root      1 :     2.863268626898370   Change is   -0.000335953357944
 Root      2 :     3.902266446252541   Change is   -0.000012593147763
 Root      3 :     4.074734945018876   Change is   -0.000016293416967
 Root      4 :     4.803811480273849   Change is   -0.001082938150253
 Root      5 :     5.240572149604723   Change is   -0.001332313367967
 Root      6 :     5.721571229663615   Change is   -0.000431576702679
 Iteration     5 Dimension    54 NMult    42 NNew     12
 CISAX will form    12 AO SS matrices at one time.
 NMat=    12 NSing=    12 JSym2X= 0.
 Root      1 not converged, maximum delta is    0.000316644263981
 Root      2 not converged, maximum delta is    0.000101952219685
 Root      3 not converged, maximum delta is    0.000091030830320
 Root      4 not converged, maximum delta is    0.000583185749181
 Root      5 not converged, maximum delta is    0.000569733019139
 Root      6 not converged, maximum delta is    0.004282774490831
 Excitation Energies [eV] at current iteration:
 Root      1 :     2.863246767156009   Change is   -0.000021859742361
 Root      2 :     3.902265665469824   Change is   -0.000000780782717
 Root      3 :     4.074733535600807   Change is   -0.000001409418069
 Root      4 :     4.803709367002159   Change is   -0.000102113271690
 Root      5 :     5.240426283760496   Change is   -0.000145865844227
 Root      6 :     5.721475445698623   Change is   -0.000095783964993
 Iteration     6 Dimension    66 NMult    54 NNew     12
 CISAX will form    12 AO SS matrices at one time.
 NMat=    12 NSing=    12 JSym2X= 0.
 Root      1 not converged, maximum delta is    0.000042802785298
 Root      2 not converged, maximum delta is    0.000024048783189
 Root      3 not converged, maximum delta is    0.000025087617940
 Root      4 not converged, maximum delta is    0.000318583819409
 Root      5 not converged, maximum delta is    0.000313940472834
 Root      6 not converged, maximum delta is    0.000906905320631
 Excitation Energies [eV] at current iteration:
 Root      1 :     2.863245460982596   Change is   -0.000001306173413
 Root      2 :     3.902265602048409   Change is   -0.000000063421415
 Root      3 :     4.074733417141832   Change is   -0.000000118458974
 Root      4 :     4.803699117392186   Change is   -0.000010249609973
 Root      5 :     5.240411915567951   Change is   -0.000014368192545
 Root      6 :     5.721461797069306   Change is   -0.000013648629317
 Iteration     7 Dimension    78 NMult    66 NNew     12
 CISAX will form    12 AO SS matrices at one time.
 NMat=    12 NSing=    12 JSym2X= 0.
 Root      1 not converged, maximum delta is    0.000009625665741
 Root      2 not converged, maximum delta is    0.000004451391975
 Root      3 not converged, maximum delta is    0.000004914571028
 Root      4 not converged, maximum delta is    0.000121309133870
 Root      5 not converged, maximum delta is    0.000119517857403
 Root      6 not converged, maximum delta is    0.000129940594783
 Excitation Energies [eV] at current iteration:
 Root      1 :     2.863245414706833   Change is   -0.000000046275763
 Root      2 :     3.902265598366197   Change is   -0.000000003682212
 Root      3 :     4.074733410185269   Change is   -0.000000006956563
 Root      4 :     4.803698338626783   Change is   -0.000000778765402
 Root      5 :     5.240410733450601   Change is   -0.000001182117350
 Root      6 :     5.721460597877963   Change is   -0.000001199191343
 Iteration     8 Dimension    90 NMult    78 NNew     12
 CISAX will form    12 AO SS matrices at one time.
 NMat=    12 NSing=    12 JSym2X= 0.
 Root      1 not converged, maximum delta is    0.000003084323324
 Root      2 not converged, maximum delta is    0.000001215724267
 Root      3 has converged.
 Root      4 not converged, maximum delta is    0.000014962888144
 Root      5 not converged, maximum delta is    0.000028194142875
 Root      6 not converged, maximum delta is    0.000055678253747
 Excitation Energies [eV] at current iteration:
 Root      1 :     2.863245412708670   Change is   -0.000000001998163
 Root      2 :     3.902265598223428   Change is   -0.000000000142769
 Root      3 :     4.074733409829343   Change is   -0.000000000355926
 Root      4 :     4.803698291898527   Change is   -0.000000046728256
 Root      5 :     5.240410641040594   Change is   -0.000000092410007
 Root      6 :     5.721460439544950   Change is   -0.000000158333013
 Iteration     9 Dimension   100 NMult    90 NNew     10
 CISAX will form    10 AO SS matrices at one time.
 NMat=    10 NSing=    10 JSym2X= 0.
 Root      1 has converged.
 Root      2 has converged.
 Root      3 has converged.
 Root      4 not converged, maximum delta is    0.000003647515634
 Root      5 not converged, maximum delta is    0.000007392204696
 Root      6 not converged, maximum delta is    0.000021594761514
 Excitation Energies [eV] at current iteration:
 Root      1 :     2.863245412638958   Change is   -0.000000000069711
 Root      2 :     3.902265598216772   Change is   -0.000000000006657
 Root      3 :     4.074733409822707   Change is   -0.000000000006637
 Root      4 :     4.803698289262690   Change is   -0.000000002635837
 Root      5 :     5.240410634505781   Change is   -0.000000006534813
 Root      6 :     5.721460417216220   Change is   -0.000000022328730
 Iteration    10 Dimension   106 NMult   100 NNew      6
 CISAX will form     6 AO SS matrices at one time.
 NMat=     6 NSing=     6 JSym2X= 0.
 Root      1 has converged.
 Root      2 has converged.
 Root      3 has converged.
 Root      4 has converged.
 Root      5 not converged, maximum delta is    0.000001624753943
 Root      6 not converged, maximum delta is    0.000006517862631
 Excitation Energies [eV] at current iteration:
 Root      1 :     2.863245412638557   Change is   -0.000000000000402
 Root      2 :     3.902265598216540   Change is   -0.000000000000231
 Root      3 :     4.074733409822061   Change is   -0.000000000000646
 Root      4 :     4.803698289130592   Change is   -0.000000000132098
 Root      5 :     5.240410634078650   Change is   -0.000000000427132
 Root      6 :     5.721460414760409   Change is   -0.000000002455811
 Iteration    11 Dimension   110 NMult   106 NNew      4
 CISAX will form     4 AO SS matrices at one time.
 NMat=     4 NSing=     4 JSym2X= 0.
 Root      1 has converged.
 Root      2 has converged.
 Root      3 has converged.
 Root      4 has converged.
 Root      5 has converged.
 Root      6 not converged, maximum delta is    0.000001490138707
 Excitation Energies [eV] at current iteration:
 Root      1 :     2.863245412638441   Change is   -0.000000000000115
 Root      2 :     3.902265598216519   Change is   -0.000000000000021
 Root      3 :     4.074733409821899   Change is   -0.000000000000162
 Root      4 :     4.803698289125048   Change is   -0.000000000005544
 Root      5 :     5.240410634047840   Change is   -0.000000000030810
 Root      6 :     5.721460414566552   Change is   -0.000000000193857
 Iteration    12 Dimension   112 NMult   110 NNew      2
 CISAX will form     2 AO SS matrices at one time.
 NMat=     2 NSing=     2 JSym2X= 0.
 Root      1 has converged.
 Root      2 has converged.
 Root      3 has converged.
 Root      4 has converged.
 Root      5 has converged.
 Root      6 has converged.
 Excitation Energies [eV] at current iteration:
 Root      1 :     2.863245412638298   Change is   -0.000000000000144
 Root      2 :     3.902265598216561   Change is    0.000000000000042
 Root      3 :     4.074733409821839   Change is   -0.000000000000060
 Root      4 :     4.803698289125030   Change is   -0.000000000000017
 Root      5 :     5.240410634047809   Change is   -0.000000000000031
 Root      6 :     5.721460414552097   Change is   -0.000000000014455
 Convergence achieved on expansion vectors.
 ***********************************************************************
 Excited states from <AA,BB:AA,BB> singles matrix:
 ***********************************************************************
 
 1PDM for each excited state written to RWF  633
 Ground to excited state transition densities written to RWF  633
 Ground to excited state transition electric dipole moments (Au):
       state          X           Y           Z        Dip. S.      Osc.
         1         1.6268     -0.1772     -0.0485      2.6802      0.1880
         2         0.0120     -0.0467      0.0344      0.0035      0.0003
         3        -0.0748      0.0898     -0.0222      0.0142      0.0014
         4         0.1932      1.7101     -0.0401      2.9632      0.3487
         5        -0.0767     -1.5588     -0.0037      2.4358      0.3127
         6        -0.0116     -0.1962     -0.0392      0.0402      0.0056
 Ground to excited state transition velocity dipole moments (Au):
       state          X           Y           Z        Dip. S.      Osc.
         1        -0.1648      0.0147      0.0052      0.0274      0.1736
         2        -0.0018      0.0069     -0.0017      0.0001      0.0003
         3         0.0103     -0.0110      0.0000      0.0002      0.0010
         4        -0.0394     -0.2881      0.0045      0.0846      0.3193
         5         0.0153      0.2941     -0.0003      0.0867      0.3002
         6         0.0038      0.0395      0.0284      0.0024      0.0075
 Ground to excited state transition magnetic dipole moments (Au):
       state          X           Y           Z
         1         0.0120     -0.0608      1.4794
         2         0.7791     -0.1153     -0.0552
         3         0.1899     -0.9604     -0.2224
         4        -0.0133      0.0506     -0.0673
         5         0.0896     -0.0979      0.2759
         6        -0.0616      0.0149     -0.0423
 Ground to excited state transition velocity quadrupole moments (Au):
       state          XX          YY          ZZ          XY          XZ          YZ
         1         0.1644     -0.0876     -0.0063      0.4719     -0.0242     -0.0189
         2         0.0257     -0.0087     -0.0114     -0.0046      0.0079      0.0747
         3        -0.0404      0.0090      0.0170     -0.0680      0.0623      0.0103
         4         1.3209     -0.2730     -0.0185     -0.0677     -0.0681      0.0245
         5        -0.4494      0.2921      0.0302      0.2287      0.0579     -0.0036
         6         0.0988      0.1275     -0.1021     -0.0147     -0.0265     -0.1264
 <0|del|b> * <b|rxdel|0> + <0|del|b> * <b|delr+rdel|0>
 Rotatory Strengths (R) in cgs (10**-40 erg-esu-cm/Gauss)
       state          XX          YY          ZZ    R(velocity)    E-M Angle
         1        32.2931     21.4318    -21.3114     10.8045       88.87
         2        -1.8559     -3.6748     -5.0393     -3.5233      111.63
         3        26.4560      4.8764     27.6380     19.6568       34.39
         4       -69.7083     -0.8793     13.0666    -19.1737      125.40
         5       -84.3694      2.3863    -18.9550    -33.6460      107.75
         6         0.0223     -2.5182     -0.3539     -0.9500      103.19
 1/2[<0|r|b>*<b|rxdel|0> + (<0|rxdel|b>*<b|r|0>)*]
 Rotatory Strengths (R) in cgs (10**-40 erg-esu-cm/Gauss)
       state          XX          YY          ZZ     R(length)
         1       -13.7916     -7.6160     50.7685      9.7870
         2        -6.6260     -3.8085      1.3437     -3.0303
         3        10.0478     60.9936     -3.4849     22.5188
         4         1.8194    -61.2004     -1.9063    -20.4291
         5         4.8628   -107.8666      0.7247    -34.0930
         6        -0.5071      2.0661     -1.1711      0.1293
  1/2[<0|del|b>*<b|r|0> + (<0|r|b>*<b|del|0>)*] (Au)
       state          X           Y           Z        Dip. S.   Osc.(frdel)
         1        -0.2681     -0.0026     -0.0003      0.2710      0.1806
         2        -0.0000     -0.0003     -0.0001      0.0004      0.0003
         3        -0.0008     -0.0010     -0.0000      0.0018      0.0012
         4        -0.0076     -0.4926     -0.0002      0.5004      0.3336
         5        -0.0012     -0.4584      0.0000      0.4596      0.3064
         6        -0.0000     -0.0077     -0.0011      0.0089      0.0059

 Excitation energies and oscillator strengths:
 
 Excited State   1:      Singlet-A      2.8632 eV  433.02 nm  f=0.1880  <S**2>=0.000
      52 -> 53         0.70190
 
 Excited State   2:      Singlet-A      3.9023 eV  317.72 nm  f=0.0003  <S**2>=0.000
      50 -> 54         0.15939
      51 -> 53         0.59128
      51 -> 54         0.31311
 This state for optimization and/or second-order correction.
 Total Energy, E(TD-HF/TD-DFT) =  -633.174965902    
 Copying the excited state density for this state as the 1-particle RhoCI density.
 
 Excited State   3:      Singlet-A      4.0747 eV  304.28 nm  f=0.0014  <S**2>=0.000
      49 -> 53         0.28948
      49 -> 54        -0.16002
      50 -> 53         0.52107
      50 -> 54        -0.23557
      50 -> 58         0.10878
      51 -> 54         0.19117
 
 Excited State   4:      Singlet-A      4.8037 eV  258.10 nm  f=0.3487  <S**2>=0.000
      52 -> 54         0.69690
 
 Excited State   5:      Singlet-A      5.2404 eV  236.59 nm  f=0.3127  <S**2>=0.000
      49 -> 53         0.59945
      50 -> 53        -0.33709
 
 Excited State   6:      Singlet-A      5.7215 eV  216.70 nm  f=0.0056  <S**2>=0.000
      52 -> 55         0.64645
      52 -> 56         0.17166
      52 -> 57         0.13295
      52 -> 62        -0.10545
 SavETr:  write IOETrn=   770 NScale= 10 NData=  16 NLR=1 NState=    6 LETran=     118.
 The selected state is a singlet.
 CISGrd: IGrad=1 NXY=2 DFT=T
 CISAX will form     1 AO SS matrices at one time.
 NMat=     1 NSing=     1 JSym2X= 0.
 Leave Link  914 at Fri Jan 23 17:06:00 2026, MaxMem=  2147483648 cpu:            7653.2 elap:             479.9
 (Enter /data/home/wyx/g16/l1002.exe)
 Minotr:  Closed shell wavefunction.
          Computing CIS/TDA/TD derivatives.
          Using Z-Vector for PSCF gradient.
          Skipping F1 and S1 gradient terms here.
 NEqPCM:  Using equilibrium solvation (IEInf=0, Eps=   7.4257, EpsInf=   1.9740)
          Frozen-core window.
          Direct CPHF calculation.
          Differentiating once with respect to electric field.
                with respect to dipole field.
          Electric field/nuclear overlap derivatives assumed to be zero.
          Requested convergence is 1.0D-10 RMS, and 1.0D-09 maximum.
          NewPWx=F KeepS1=T KeepF1=T KeepIn=T MapXYZ=F SortEE=F KeepMc=T.
 Two-electron integral symmetry used by symmetrizing perturbed Fock matrices.
          MDV=    2147483648 using IRadAn=       5.
          Solving linear equations separately, MaxMat=     384.
          There are     1 degrees of freedom in the 1st order CPHF.  IDoFFX=0 NUNeed=     1.
 FoFJK:  IHMeth= 1 ICntrl=       0 DoSepK=T KAlg= 0 I1Cent=           0 FoldK=F
 IRaf=         1 NMat=       1 IRICut=       1 DoRegI=T DoRafI=F ISym2E=-1 IDoP0=0 IntGTp=1.
 FoFCou: FMM=F IPFlag=           0 FMFlag=      100000 FMFlg1=           0
         NFxFlg=           0 DoJE=T BraDBF=F KetDBF=F FulRan=T
         wScrn=  0.000000 ICntrl=       500 IOpCl=  0 I1Cent=           0 NGrid=           0
         NMat0=    1 NMatS0=      1 NMatT0=    0 NMatD0=    1 NMtDS0=    0 NMtDT0=    0
 Petite list used in FoFCou.
 LinEq1:  Iter=  0 NonCon=     1 RMS=8.50D-03 Max=3.95D-01 NDo=     1
 AX will form     1 AO Fock derivatives at one time.
 LinEq1:  Iter=  1 NonCon=     1 RMS=2.35D-03 Max=1.16D-01 NDo=     1
 LinEq1:  Iter=  2 NonCon=     1 RMS=1.66D-03 Max=9.85D-02 NDo=     1
 LinEq1:  Iter=  3 NonCon=     1 RMS=6.93D-04 Max=3.74D-02 NDo=     1
 LinEq1:  Iter=  4 NonCon=     1 RMS=3.69D-04 Max=1.41D-02 NDo=     1
 LinEq1:  Iter=  5 NonCon=     1 RMS=1.93D-04 Max=1.03D-02 NDo=     1
 LinEq1:  Iter=  6 NonCon=     1 RMS=1.00D-04 Max=3.41D-03 NDo=     1
 LinEq1:  Iter=  7 NonCon=     1 RMS=6.12D-05 Max=2.88D-03 NDo=     1
 LinEq1:  Iter=  8 NonCon=     1 RMS=2.91D-05 Max=1.02D-03 NDo=     1
 LinEq1:  Iter=  9 NonCon=     1 RMS=2.10D-05 Max=9.84D-04 NDo=     1
 LinEq1:  Iter= 10 NonCon=     1 RMS=9.04D-06 Max=2.46D-04 NDo=     1
 LinEq1:  Iter= 11 NonCon=     1 RMS=4.94D-06 Max=1.68D-04 NDo=     1
 LinEq1:  Iter= 12 NonCon=     1 RMS=1.51D-06 Max=4.65D-05 NDo=     1
 LinEq1:  Iter= 13 NonCon=     1 RMS=7.33D-07 Max=1.97D-05 NDo=     1
 LinEq1:  Iter= 14 NonCon=     1 RMS=2.63D-07 Max=7.20D-06 NDo=     1
 LinEq1:  Iter= 15 NonCon=     1 RMS=1.04D-07 Max=1.99D-06 NDo=     1
 LinEq1:  Iter= 16 NonCon=     1 RMS=3.45D-08 Max=7.62D-07 NDo=     1
 LinEq1:  Iter= 17 NonCon=     1 RMS=1.18D-08 Max=3.74D-07 NDo=     1
 LinEq1:  Iter= 18 NonCon=     1 RMS=4.88D-09 Max=2.17D-07 NDo=     1
 LinEq1:  Iter= 19 NonCon=     1 RMS=1.74D-09 Max=8.10D-08 NDo=     1
 LinEq1:  Iter= 20 NonCon=     1 RMS=6.37D-10 Max=2.26D-08 NDo=     1
 LinEq1:  Iter= 21 NonCon=     1 RMS=3.04D-10 Max=6.28D-09 NDo=     1
 LinEq1:  Iter= 22 NonCon=     1 RMS=1.04D-10 Max=2.37D-09 NDo=     1
 LinEq1:  Iter= 23 NonCon=     0 RMS=2.45D-11 Max=4.33D-10 NDo=     1
 Linear equations converged to 1.000D-10 1.000D-09 after    23 iterations.
 PCM Corrected Linear-Response - Equilibrium solvation:
 Corrected transition energy               =    3.8178          eV
 Total energy after correction             = -633.178070275     a.u.
 NEqPCM:  Using non-equilibrium solvation (IEInf=1, Eps=   7.4257, EpsInf=   1.9740)
 Inv3:  Mode=1 IEnd=    13179648.
 Iteration    1 A*A^-1 deviation from unit magnitude is 3.22D-15 for   1810.
 Iteration    1 A*A^-1 deviation from orthogonality  is 2.21D-15 for   1339    971.
 Iteration    1 A^-1*A deviation from unit magnitude is 3.11D-15 for    739.
 Iteration    1 A^-1*A deviation from orthogonality  is 3.18D-14 for   1369   1339.
 NEqSol: Computing the dynamic-inertial partition of the PCM polarization charges.
 End of Minotr F.D. properties file   721 does not exist.
 End of Minotr F.D. properties file   722 does not exist.
 End of Minotr F.D. properties file   788 does not exist.
 Leave Link 1002 at Fri Jan 23 17:08:01 2026, MaxMem=  2147483648 cpu:            1902.8 elap:             119.8
 (Enter /data/home/wyx/g16/l601.exe)
 Copying SCF densities to generalized density rwf, IOpCl= 0 IROHF=0.

 **********************************************************************

            Population analysis using the CI density.

 **********************************************************************

 Orbital symmetries:
       Occupied  (A) (A) (A) (A) (A) (A) (A) (A) (A) (A) (A) (A)
                 (A) (A) (A) (A) (A) (A) (A) (A) (A) (A) (A) (A)
                 (A) (A) (A) (A) (A) (A) (A) (A) (A) (A) (A) (A)
                 (A) (A) (A) (A) (A) (A) (A) (A) (A) (A) (A) (A)
                 (A) (A) (A) (A)
       Virtual   (A) (A) (A) (A) (A) (A) (A) (A) (A) (A) (A) (A)
                 (A) (A) (A) (A) (A) (A) (A) (A) (A) (A) (A) (A)
                 (A) (A) (A) (A) (A) (A) (A) (A) (A) (A) (A) (A)
                 (A) (A) (A) (A) (A) (A) (A) (A) (A) (A) (A) (A)
                 (A) (A) (A) (A) (A) (A) (A) (A) (A) (A) (A) (A)
                 (A) (A) (A) (A) (A) (A) (A) (A) (A) (A) (A) (A)
                 (A) (A) (A) (A) (A) (A) (A) (A) (A) (A) (A) (A)
                 (A) (A) (A) (A) (A) (A) (A) (A) (A) (A) (A) (A)
                 (A) (A) (A) (A) (A) (A) (A) (A) (A) (A) (A) (A)
                 (A) (A) (A) (A) (A) (A) (A) (A) (A) (A) (A) (A)
                 (A) (A) (A) (A) (A) (A) (A) (A) (A) (A) (A) (A)
                 (A) (A) (A) (A) (A) (A) (A) (A) (A) (A) (A) (A)
                 (A) (A) (A) (A) (A) (A) (A) (A) (A) (A) (A) (A)
                 (A) (A) (A) (A) (A) (A) (A) (A) (A) (A) (A) (A)
                 (A) (A) (A) (A) (A) (A) (A) (A) (A) (A) (A) (A)
                 (A) (A) (A) (A) (A) (A) (A) (A) (A) (A) (A) (A)
                 (A) (A) (A) (A) (A) (A) (A) (A) (A) (A) (A) (A)
                 (A) (A) (A) (A) (A) (A) (A) (A) (A) (A) (A) (A)
                 (A) (A) (A) (A) (A) (A) (A) (A) (A) (A) (A) (A)
                 (A) (A) (A) (A) (A) (A) (A) (A) (A) (A) (A) (A)
                 (A) (A) (A) (A) (A) (A) (A) (A) (A) (A) (A) (A)
                 (A) (A) (A) (A) (A) (A) (A) (A) (A) (A) (A) (A)
                 (A) (A) (A) (A) (A) (A) (A) (A) (A) (A) (A) (A)
                 (A) (A) (A) (A) (A) (A) (A) (A) (A) (A) (A) (A)
                 (A) (A) (A) (A) (A) (A) (A) (A) (A) (A) (A) (A)
                 (A) (A) (A) (A)
 The electronic state is 1-A.
 Alpha  occ. eigenvalues --  -19.17798 -19.16860 -14.44928 -10.33361 -10.33007
 Alpha  occ. eigenvalues --  -10.32778 -10.32373 -10.26336 -10.25492 -10.25186
 Alpha  occ. eigenvalues --  -10.24758 -10.24424 -10.24222 -10.23670  -1.11289
 Alpha  occ. eigenvalues --   -1.10666  -1.08610  -0.91455  -0.90546  -0.83953
 Alpha  occ. eigenvalues --   -0.82690  -0.81673  -0.78512  -0.73819  -0.72303
 Alpha  occ. eigenvalues --   -0.68714  -0.61546  -0.58301  -0.57066  -0.55152
 Alpha  occ. eigenvalues --   -0.54659  -0.53998  -0.52471  -0.51751  -0.50870
 Alpha  occ. eigenvalues --   -0.49693  -0.49505  -0.49250  -0.48707  -0.47994
 Alpha  occ. eigenvalues --   -0.47312  -0.45302  -0.45096  -0.44078  -0.43341
 Alpha  occ. eigenvalues --   -0.42107  -0.42066  -0.41430  -0.32564  -0.32154
 Alpha  occ. eigenvalues --   -0.31104  -0.24995
 Alpha virt. eigenvalues --   -0.03436   0.02519   0.06203   0.08001   0.08363
 Alpha virt. eigenvalues --    0.09674   0.10702   0.11416   0.12484   0.13349
 Alpha virt. eigenvalues --    0.13819   0.14807   0.15531   0.16384   0.16932
 Alpha virt. eigenvalues --    0.17413   0.17809   0.18032   0.18501   0.19234
 Alpha virt. eigenvalues --    0.19800   0.21923   0.22660   0.23381   0.23823
 Alpha virt. eigenvalues --    0.24033   0.24689   0.25609   0.26320   0.26699
 Alpha virt. eigenvalues --    0.27391   0.28035   0.28420   0.29562   0.30156
 Alpha virt. eigenvalues --    0.31529   0.31861   0.32249   0.33361   0.34052
 Alpha virt. eigenvalues --    0.34650   0.35694   0.36685   0.37515   0.38522
 Alpha virt. eigenvalues --    0.39621   0.40901   0.41330   0.41760   0.42420
 Alpha virt. eigenvalues --    0.43948   0.44841   0.45521   0.46167   0.46482
 Alpha virt. eigenvalues --    0.47265   0.47666   0.47822   0.48457   0.49146
 Alpha virt. eigenvalues --    0.49628   0.50517   0.51216   0.51286   0.51547
 Alpha virt. eigenvalues --    0.52341   0.52624   0.53234   0.53606   0.54177
 Alpha virt. eigenvalues --    0.54278   0.55202   0.55770   0.56585   0.58141
 Alpha virt. eigenvalues --    0.58376   0.59976   0.61040   0.61845   0.63111
 Alpha virt. eigenvalues --    0.64165   0.64919   0.66290   0.66938   0.67468
 Alpha virt. eigenvalues --    0.68723   0.69182   0.70507   0.70862   0.71974
 Alpha virt. eigenvalues --    0.72888   0.74812   0.75182   0.76074   0.77541
 Alpha virt. eigenvalues --    0.79031   0.80736   0.83457   0.86774   0.87515
 Alpha virt. eigenvalues --    0.91790   0.95961   1.02481   1.04340   1.21780
 Alpha virt. eigenvalues --    1.24163   1.27315   1.28173   1.28849   1.30156
 Alpha virt. eigenvalues --    1.31949   1.33165   1.34538   1.35115   1.36303
 Alpha virt. eigenvalues --    1.36835   1.37813   1.38406   1.38811   1.39457
 Alpha virt. eigenvalues --    1.39880   1.40077   1.40688   1.41320   1.42098
 Alpha virt. eigenvalues --    1.43226   1.43303   1.44183   1.45531   1.47178
 Alpha virt. eigenvalues --    1.48081   1.49402   1.49553   1.50170   1.50759
 Alpha virt. eigenvalues --    1.51347   1.52091   1.52973   1.55626   1.58881
 Alpha virt. eigenvalues --    1.59677   1.59923   1.60964   1.61677   1.62150
 Alpha virt. eigenvalues --    1.62569   1.62890   1.63339   1.64458   1.65637
 Alpha virt. eigenvalues --    1.66267   1.66954   1.67482   1.68000   1.68688
 Alpha virt. eigenvalues --    1.69026   1.69710   1.70243   1.70956   1.72464
 Alpha virt. eigenvalues --    1.74148   1.74593   1.75437   1.76449   1.78475
 Alpha virt. eigenvalues --    1.81496   1.82874   1.83721   1.85570   1.86438
 Alpha virt. eigenvalues --    1.86476   1.87863   1.88620   1.89116   1.90148
 Alpha virt. eigenvalues --    1.91261   1.94308   1.94980   1.98913   1.99715
 Alpha virt. eigenvalues --    2.01574   2.03784   2.05738   2.06792   2.09340
 Alpha virt. eigenvalues --    2.09945   2.11385   2.15748   2.17420   2.19526
 Alpha virt. eigenvalues --    2.20467   2.21155   2.22085   2.22903   2.26343
 Alpha virt. eigenvalues --    2.26809   2.27337   2.29142   2.30942   2.32164
 Alpha virt. eigenvalues --    2.33399   2.34343   2.36842   2.37678   2.39039
 Alpha virt. eigenvalues --    2.39391   2.40174   2.41318   2.42688   2.45005
 Alpha virt. eigenvalues --    2.45514   2.47305   2.48732   2.49406   2.51203
 Alpha virt. eigenvalues --    2.52392   2.53913   2.54449   2.56308   2.57264
 Alpha virt. eigenvalues --    2.58625   2.60835   2.61769   2.62297   2.63333
 Alpha virt. eigenvalues --    2.64668   2.65304   2.66514   2.67315   2.68359
 Alpha virt. eigenvalues --    2.71471   2.71815   2.73918   2.74534   2.75394
 Alpha virt. eigenvalues --    2.76448   2.77185   2.77695   2.78223   2.78801
 Alpha virt. eigenvalues --    2.80680   2.81386   2.83165   2.83702   2.85080
 Alpha virt. eigenvalues --    2.85446   2.86299   2.88701   2.88964   2.92090
 Alpha virt. eigenvalues --    2.97193   2.98496   3.01009   3.06995   3.10584
 Alpha virt. eigenvalues --    3.12138   3.13800   3.18125   3.19289   3.21395
 Alpha virt. eigenvalues --    3.22256   3.23209   3.25016   3.25942   3.26344
 Alpha virt. eigenvalues --    3.29268   3.30279   3.32095   3.34652   3.36504
 Alpha virt. eigenvalues --    3.38235   3.38641   3.39133   3.39365   3.41441
 Alpha virt. eigenvalues --    3.41887   3.43692   3.44701   3.47576   3.48162
 Alpha virt. eigenvalues --    3.49757   3.50223   3.56023   3.58298   3.59799
 Alpha virt. eigenvalues --    3.61357   3.90953   4.00734   4.32931   4.35988
 Alpha virt. eigenvalues --   21.68417  21.80799  22.07758  22.10031  22.11392
 Alpha virt. eigenvalues --   22.14560  22.14920  22.17354  22.18887  22.24974
 Alpha virt. eigenvalues --   22.27013  31.91164  43.64075  43.66898
          Condensed to atoms (all electrons):
               1          2          3          4          5          6
     1  O    7.960203   0.000000  -0.000157   0.000020   0.019358   0.009181
     2  O    0.000000   7.973888   0.000749   0.000023  -0.101004   0.000322
     3  N   -0.000157   0.000749   6.344848   0.367405  -0.094754   0.385976
     4  H    0.000020   0.000023   0.367405   0.424392   0.016932  -0.046099
     5  C    0.019358  -0.101004  -0.094754   0.016932   6.114976  -0.085486
     6  C    0.009181   0.000322   0.385976  -0.046099  -0.085486   5.553707
     7  C   -0.000286   0.001864   0.337596  -0.038927   0.340117  -0.135108
     8  C   -0.000414   0.319073   0.014197  -0.001121   0.315309   0.018711
     9  C   -0.000068   0.012970   0.008092   0.000270  -0.464549  -0.047264
    10  H    0.008625   0.000017  -0.000904   0.000030  -0.099274   0.026978
    11  H    0.010167  -0.000029   0.003665   0.000046  -0.078609  -0.018556
    12  C   -0.243608  -0.001151  -0.098918   0.015526   0.176726  -0.034364
    13  C    0.701548   0.000036   0.000894   0.000616   0.086279   0.101249
    14  C   -0.000007   0.014326  -0.029883  -0.009979  -0.097832   0.013915
    15  H    0.000000   0.000769   0.004240   0.003226   0.018239   0.003784
    16  H    0.000000  -0.003073  -0.000253   0.000684   0.001215  -0.001688
    17  H   -0.000000  -0.002112  -0.001253   0.000770  -0.000225  -0.000979
    18  C    0.000414  -0.048484  -0.000294   0.000020  -0.012336  -0.000631
    19  H    0.000000   0.001709  -0.000002  -0.000001   0.012855   0.000100
    20  H    0.000083   0.002309   0.000035   0.000001  -0.011191  -0.000546
    21  H   -0.000085   0.002763  -0.000022  -0.000000  -0.023516  -0.000079
    22  C   -0.104975   0.000000  -0.000283   0.000124   0.003704  -0.023389
    23  H    0.001938  -0.000000   0.000024  -0.000011  -0.000023   0.007849
    24  H    0.005197  -0.000000   0.000260  -0.000058  -0.000751  -0.021005
    25  H    0.006935  -0.000000   0.000027  -0.000003  -0.000136  -0.000894
    26  C    0.000599   0.000003  -0.027376  -0.007681  -0.001885   0.189470
    27  H   -0.000052   0.000000  -0.003381   0.000578   0.000399  -0.033722
    28  H   -0.000298   0.000000   0.000280   0.000688  -0.000007  -0.060647
    29  H    0.000025  -0.000000   0.002060   0.002584  -0.000339  -0.046527
               7          8          9         10         11         12
     1  O   -0.000286  -0.000414  -0.000068   0.008625   0.010167  -0.243608
     2  O    0.001864   0.319073   0.012970   0.000017  -0.000029  -0.001151
     3  N    0.337596   0.014197   0.008092  -0.000904   0.003665  -0.098918
     4  H   -0.038927  -0.001121   0.000270   0.000030   0.000046   0.015526
     5  C    0.340117   0.315309  -0.464549  -0.099274  -0.078609   0.176726
     6  C   -0.135108   0.018711  -0.047264   0.026978  -0.018556  -0.034364
     7  C    5.495772  -0.133664  -0.073369   0.013813  -0.009061  -0.010266
     8  C   -0.133664   5.336974   0.001195  -0.014730   0.001803  -0.014627
     9  C   -0.073369   0.001195   6.329696   0.523213   0.433575  -0.189354
    10  H    0.013813  -0.014730   0.523213   0.553696  -0.057218  -0.112158
    11  H   -0.009061   0.001803   0.433575  -0.057218   0.591244  -0.008198
    12  C   -0.010266  -0.014627  -0.189354  -0.112158  -0.008198   7.438236
    13  C    0.014393  -0.004875  -0.234894   0.000873  -0.006398  -0.472162
    14  C    0.232261  -0.014310   0.013824   0.000396  -0.000563  -0.003367
    15  H   -0.063842   0.000688  -0.000653   0.000001   0.000037  -0.000410
    16  H   -0.052464  -0.007740  -0.000949  -0.000056   0.000176   0.000797
    17  H   -0.045115  -0.007681   0.000779   0.000067  -0.000060   0.000122
    18  C    0.010461   0.204148  -0.037563   0.010867  -0.017833  -0.001003
    19  H   -0.000821  -0.051593   0.001409   0.000712  -0.000352  -0.000950
    20  H    0.001085  -0.036275   0.009444  -0.008354   0.003915   0.002933
    21  H    0.000148  -0.044406  -0.005853  -0.001108   0.001524   0.002027
    22  C    0.000006   0.000024   0.005212  -0.001917   0.004295  -0.248553
    23  H    0.000005  -0.000002  -0.002573  -0.000153   0.000205  -0.010739
    24  H   -0.000033   0.000009   0.002392   0.000119  -0.000247   0.063666
    25  H    0.000015  -0.000001   0.001043   0.000032  -0.000161   0.018285
    26  C    0.005495   0.000348   0.028005   0.000232  -0.001035  -0.096155
    27  H   -0.000262  -0.000017  -0.001899   0.000034   0.000012  -0.013593
    28  H   -0.000655  -0.000007   0.001967   0.000024  -0.000152  -0.004978
    29  H    0.003066  -0.000005  -0.000952  -0.000017   0.000091   0.022137
              13         14         15         16         17         18
     1  O    0.701548  -0.000007   0.000000   0.000000  -0.000000   0.000414
     2  O    0.000036   0.014326   0.000769  -0.003073  -0.002112  -0.048484
     3  N    0.000894  -0.029883   0.004240  -0.000253  -0.001253  -0.000294
     4  H    0.000616  -0.009979   0.003226   0.000684   0.000770   0.000020
     5  C    0.086279  -0.097832   0.018239   0.001215  -0.000225  -0.012336
     6  C    0.101249   0.013915   0.003784  -0.001688  -0.000979  -0.000631
     7  C    0.014393   0.232261  -0.063842  -0.052464  -0.045115   0.010461
     8  C   -0.004875  -0.014310   0.000688  -0.007740  -0.007681   0.204148
     9  C   -0.234894   0.013824  -0.000653  -0.000949   0.000779  -0.037563
    10  H    0.000873   0.000396   0.000001  -0.000056   0.000067   0.010867
    11  H   -0.006398  -0.000563   0.000037   0.000176  -0.000060  -0.017833
    12  C   -0.472162  -0.003367  -0.000410   0.000797   0.000122  -0.001003
    13  C    5.600690  -0.000053   0.000002   0.000004  -0.000003   0.001369
    14  C   -0.000053   5.077451   0.399774   0.436806   0.429370   0.001550
    15  H    0.000002   0.399774   0.545457  -0.022413  -0.021676   0.000009
    16  H    0.000004   0.436806  -0.022413   0.519954  -0.035511  -0.000335
    17  H   -0.000003   0.429370  -0.021676  -0.035511   0.518490  -0.000458
    18  C    0.001369   0.001550   0.000009  -0.000335  -0.000458   5.081053
    19  H   -0.000048   0.000071   0.000003  -0.000007   0.000020   0.395948
    20  H    0.000275  -0.000125  -0.000001  -0.000005   0.000021   0.406594
    21  H   -0.000040  -0.000286  -0.000000   0.000028  -0.000020   0.425884
    22  C    0.268291  -0.000007   0.000002  -0.000000  -0.000000  -0.000004
    23  H   -0.026519  -0.000001  -0.000000   0.000000   0.000000  -0.000002
    24  H   -0.099488   0.000003  -0.000000  -0.000000   0.000000   0.000001
    25  H   -0.032670   0.000000  -0.000000  -0.000000  -0.000000   0.000001
    26  C   -0.049837   0.000478   0.000120  -0.000038  -0.000040   0.000014
    27  H    0.006134  -0.000099  -0.000003   0.000005  -0.000007  -0.000001
    28  H   -0.000651   0.000029  -0.000007  -0.000003   0.000001   0.000002
    29  H   -0.001260  -0.000070   0.000079  -0.000001   0.000001  -0.000001
              19         20         21         22         23         24
     1  O    0.000000   0.000083  -0.000085  -0.104975   0.001938   0.005197
     2  O    0.001709   0.002309   0.002763   0.000000  -0.000000  -0.000000
     3  N   -0.000002   0.000035  -0.000022  -0.000283   0.000024   0.000260
     4  H   -0.000001   0.000001  -0.000000   0.000124  -0.000011  -0.000058
     5  C    0.012855  -0.011191  -0.023516   0.003704  -0.000023  -0.000751
     6  C    0.000100  -0.000546  -0.000079  -0.023389   0.007849  -0.021005
     7  C   -0.000821   0.001085   0.000148   0.000006   0.000005  -0.000033
     8  C   -0.051593  -0.036275  -0.044406   0.000024  -0.000002   0.000009
     9  C    0.001409   0.009444  -0.005853   0.005212  -0.002573   0.002392
    10  H    0.000712  -0.008354  -0.001108  -0.001917  -0.000153   0.000119
    11  H   -0.000352   0.003915   0.001524   0.004295   0.000205  -0.000247
    12  C   -0.000950   0.002933   0.002027  -0.248553  -0.010739   0.063666
    13  C   -0.000048   0.000275  -0.000040   0.268291  -0.026519  -0.099488
    14  C    0.000071  -0.000125  -0.000286  -0.000007  -0.000001   0.000003
    15  H    0.000003  -0.000001  -0.000000   0.000002  -0.000000  -0.000000
    16  H   -0.000007  -0.000005   0.000028  -0.000000   0.000000  -0.000000
    17  H    0.000020   0.000021  -0.000020  -0.000000   0.000000   0.000000
    18  C    0.395948   0.406594   0.425884  -0.000004  -0.000002   0.000001
    19  H    0.532159  -0.020104  -0.033226  -0.000001  -0.000000   0.000000
    20  H   -0.020104   0.504829  -0.032454   0.000026   0.000000  -0.000000
    21  H   -0.033226  -0.032454   0.526512   0.000003   0.000000  -0.000000
    22  C   -0.000001   0.000026   0.000003   5.441188   0.403696   0.394647
    23  H   -0.000000   0.000000   0.000000   0.403696   0.506553  -0.028811
    24  H    0.000000  -0.000000  -0.000000   0.394647  -0.028811   0.552961
    25  H    0.000000   0.000000  -0.000001   0.377604  -0.010840  -0.021936
    26  C    0.000001  -0.000006  -0.000005  -0.036361  -0.009158   0.014879
    27  H   -0.000000  -0.000000   0.000000  -0.009465   0.001186  -0.002751
    28  H    0.000000   0.000000  -0.000000   0.001130  -0.000951  -0.005897
    29  H   -0.000000   0.000000   0.000000   0.002185   0.000170   0.000559
              25         26         27         28         29
     1  O    0.006935   0.000599  -0.000052  -0.000298   0.000025
     2  O   -0.000000   0.000003   0.000000   0.000000  -0.000000
     3  N    0.000027  -0.027376  -0.003381   0.000280   0.002060
     4  H   -0.000003  -0.007681   0.000578   0.000688   0.002584
     5  C   -0.000136  -0.001885   0.000399  -0.000007  -0.000339
     6  C   -0.000894   0.189470  -0.033722  -0.060647  -0.046527
     7  C    0.000015   0.005495  -0.000262  -0.000655   0.003066
     8  C   -0.000001   0.000348  -0.000017  -0.000007  -0.000005
     9  C    0.001043   0.028005  -0.001899   0.001967  -0.000952
    10  H    0.000032   0.000232   0.000034   0.000024  -0.000017
    11  H   -0.000161  -0.001035   0.000012  -0.000152   0.000091
    12  C    0.018285  -0.096155  -0.013593  -0.004978   0.022137
    13  C   -0.032670  -0.049837   0.006134  -0.000651  -0.001260
    14  C    0.000000   0.000478  -0.000099   0.000029  -0.000070
    15  H   -0.000000   0.000120  -0.000003  -0.000007   0.000079
    16  H   -0.000000  -0.000038   0.000005  -0.000003  -0.000001
    17  H   -0.000000  -0.000040  -0.000007   0.000001   0.000001
    18  C    0.000001   0.000014  -0.000001   0.000002  -0.000001
    19  H    0.000000   0.000001  -0.000000   0.000000  -0.000000
    20  H    0.000000  -0.000006  -0.000000   0.000000   0.000000
    21  H   -0.000001  -0.000005   0.000000  -0.000000   0.000000
    22  C    0.377604  -0.036361  -0.009465   0.001130   0.002185
    23  H   -0.010840  -0.009158   0.001186  -0.000951   0.000170
    24  H   -0.021936   0.014879  -0.002751  -0.005897   0.000559
    25  H    0.503185   0.002089   0.000005   0.000680  -0.000039
    26  C    0.002089   5.244944   0.419802   0.441835   0.384933
    27  H    0.000005   0.419802   0.503042  -0.033752  -0.017015
    28  H    0.000680   0.441835  -0.033752   0.518255  -0.025171
    29  H   -0.000039   0.384933  -0.017015  -0.025171   0.525865
 Mulliken charges:
               1
     1  O   -0.374345
     2  O   -0.174968
     3  N   -0.212864
     4  H    0.269944
     5  C   -0.034190
     6  C    0.245741
     7  C    0.107776
     8  C    0.118991
     9  C   -0.313147
    10  H    0.156162
    11  H    0.147719
    12  C   -0.175899
    13  C    0.146243
    14  C   -0.463675
    15  H    0.132578
    16  H    0.164867
    17  H    0.165498
    18  C   -0.419389
    19  H    0.162118
    20  H    0.177512
    21  H    0.182210
    22  C   -0.477182
    23  H    0.168156
    24  H    0.146284
    25  H    0.156780
    26  C   -0.503673
    27  H    0.184824
    28  H    0.168286
    29  H    0.147645
 Sum of Mulliken charges =  -0.00000
 Mulliken charges with hydrogens summed into heavy atoms:
               1
     1  O   -0.374345
     2  O   -0.174968
     3  N    0.057080
     5  C   -0.034190
     6  C    0.245741
     7  C    0.107776
     8  C    0.118991
     9  C   -0.009266
    12  C   -0.175899
    13  C    0.146243
    14  C   -0.000732
    18  C    0.102451
    22  C   -0.005962
    26  C   -0.002918
 Electronic spatial extent (au):  <R**2>=           3204.1819
 Charge=              0.0000 electrons
 Dipole moment (field-independent basis, Debye):
    X=             -0.0570    Y=              6.1600    Z=              0.5079  Tot=              6.1811
 Quadrupole moment (field-independent basis, Debye-Ang):
   XX=            -86.9673   YY=            -78.4338   ZZ=            -86.4509
   XY=             15.7443   XZ=              2.6291   YZ=             -2.3155
 Traceless Quadrupole moment (field-independent basis, Debye-Ang):
   XX=             -3.0166   YY=              5.5169   ZZ=             -2.5003
   XY=             15.7443   XZ=              2.6291   YZ=             -2.3155
 Octapole moment (field-independent basis, Debye-Ang**2):
  XXX=             41.7494  YYY=             54.9403  ZZZ=              1.1541  XYY=            -43.2184
  XXY=             18.7518  XXZ=              1.0483  XZZ=              0.0431  YZZ=             -2.0521
  YYZ=              4.4467  XYZ=             -5.1607
 Hexadecapole moment (field-independent basis, Debye-Ang**3):
 XXXX=          -2850.8819 YYYY=          -1293.0025 ZZZZ=           -143.8285 XXXY=             83.2207
 XXXZ=             20.8989 YYYX=            107.7689 YYYZ=            -16.7972 ZZZX=             -4.3858
 ZZZY=              1.4450 XXYY=           -685.4152 XXZZ=           -483.8987 YYZZ=           -248.9748
 XXYZ=            -12.3551 YYXZ=             11.4097 ZZXY=              2.0205
 N-N= 8.984417258700D+02 E-N=-3.272938598642D+03  KE= 6.306729055512D+02
 No NMR shielding tensors so no spin-rotation constants.
 Leave Link  601 at Fri Jan 23 17:08:01 2026, MaxMem=  2147483648 cpu:               1.8 elap:               0.1
 (Enter /data/home/wyx/g16/l9999.exe)
 Electronic transition elements 
                 1             2             3             4             5 
      1  -0.633213D+03 -0.633175D+03 -0.633169D+03 -0.633142D+03 -0.633126D+03
      2   0.158741D+01  0.229971D-01 -0.975287D-01 -0.384941D+00  0.448412D+00
      3   0.379464D+00 -0.398104D-01  0.593580D-01  0.167537D+01 -0.149396D+01
      4   0.127685D+00  0.373725D-01 -0.334793D-01 -0.903740D-01  0.527028D-01
      5  -0.159776D+00 -0.384967D-02  0.133349D-01  0.586529D-01 -0.837388D-01
      6  -0.414801D-01  0.589766D-02 -0.685289D-02 -0.284534D+00  0.282122D+00
      7  -0.125200D-01 -0.215262D-02  0.155833D-02  0.123239D-01 -0.108445D-01
      8  -0.133438D+00  0.773981D+00  0.522802D+00 -0.218420D-01  0.857959D-01
      9  -0.471697D-01  0.152947D+00 -0.841628D+00  0.429164D-01 -0.609189D-01
     10   0.147394D+01  0.306353D-01 -0.161721D+00 -0.703456D-01  0.287462D+00
     11  -0.156719D+00  0.281894D-01 -0.399295D-02  0.118535D+01 -0.516130D+00
     12   0.239312D+00 -0.715188D-02 -0.393227D-01 -0.135865D+00  0.353261D+00
     13  -0.121080D-01 -0.154821D-01  0.288953D-01 -0.199629D-01  0.357377D-01
     14   0.445319D+00 -0.940461D-03 -0.710506D-01  0.448798D+00 -0.586900D-01
     15  -0.351895D-01 -0.131795D-01  0.531887D-01  0.608430D-01 -0.527291D-02
     16   0.228440D-01  0.733892D-01  0.230931D-01  0.510334D-01  0.820860D-02
                 6 
      1  -0.633108D+03
      2   0.589044D-01
      3  -0.188893D+00
      4  -0.320386D-01
      5  -0.127614D-01
      6   0.385613D-01
      7   0.269859D-01
      8  -0.579153D-01
      9  -0.684477D-02
     10  -0.490063D-01
     11   0.104847D+00
     12   0.113910D+00
     13  -0.945259D-01
     14  -0.593389D-02
     15   0.407286D-01
     16  -0.130342D+00
 1\1\GINC-CN012\SP\RCAM-B3LYP TD-FC\TZVP\C11H15N1O2\WYX\23-Jan-2026\0\\
 #p CAM-B3LYP TZVP em=gd3bj td(nstates=6,root=2) scrf=(Solvent=TetraHyd
 roFuran,CorrectedLR,NonEquilibrium=Save) Geom=Check Guess=Read\\Title 
 Card Required\\0,1\O,0,2.840157,-1.574847,0.017213\O,0,-3.430102,-1.65
 3909,-0.180776\N,0,-0.670481,1.518778,-0.152961\H,0,-0.982798,2.480069
 ,-0.201647\C,0,-1.250212,-0.763812,-0.197036\C,0,0.675016,1.341581,-0.
 008681\C,0,-1.643876,0.584691,-0.228405\C,0,-2.209603,-1.850015,-0.197
 822\C,0,0.189724,-1.077691,-0.160822\H,0,0.395095,-1.875606,0.563843\H
 ,0,0.480365,-1.578977,-1.104718\C,0,1.146704,0.026227,0.05146\C,0,2.51
 8601,-0.403432,0.259783\C,0,-3.033737,1.108055,-0.358579\H,0,-3.028151
 ,2.195914,-0.431924\H,0,-3.525023,0.702609,-1.240708\H,0,-3.64683,0.82
 0441,0.492948\C,0,-1.703276,-3.273564,-0.183677\H,0,-2.501282,-3.92619
 ,-0.527291\H,0,-0.823489,-3.429265,-0.803787\H,0,-1.442388,-3.568728,0
 .835027\C,0,3.572536,0.524789,0.814524\H,0,4.076737,1.061124,0.007644\
 H,0,3.175876,1.256905,1.513154\H,0,4.316988,-0.087046,1.319777\C,0,1.4
 70748,2.60481,0.024276\H,0,1.751247,2.896,1.03832\H,0,2.384308,2.51297
 2,-0.557335\H,0,0.897148,3.428116,-0.401805\\Version=ES64L-G16RevA.03\
 State=1-A\HF=-633.3183715\RMSD=4.257e-09\Dipole=-0.8514217,2.2758888,0
 .0962175\Quadrupole=-9.376768,10.7859134,-1.4091454,7.1339817,1.546384
 8,-0.2223841\PG=C01 [X(C11H15N1O2)]\\@


 A MATHEMATICIAN IS A MACHINE FOR TURNING COFFEE INTO THEOREMS.
     -- QUOTED BY PAUL ERDOS
 Job cpu time:       0 days  2 hours 40 minutes 53.8 seconds.
 Elapsed time:       0 days  0 hours 10 minutes  6.2 seconds.
 File lengths (MBytes):  RWF=    734 Int=      0 D2E=      0 Chk=     67 Scr=      1
 Normal termination of Gaussian 16 at Fri Jan 23 17:08:03 2026.
