 Entering Gaussian System, Link 0=g16
 Input=DDL-LR-Eq-4.gjf
 Output=DDL-LR-Eq-4.log
 Initial command:
 /data/home/wyx/g16/l1.exe "/scr/tmp/wyx/13106/Gau-1963039.inp" -scrdir="/scr/tmp/wyx/13106/"
 Entering Link 1 = /data/home/wyx/g16/l1.exe PID=   1963040.
  
 Copyright (c) 1988,1990,1992,1993,1995,1998,2003,2009,2016,
            Gaussian, Inc.  All Rights Reserved.
  
 This is part of the Gaussian(R) 16 program.  It is based on
 the Gaussian(R) 09 system (copyright 2009, Gaussian, Inc.),
 the Gaussian(R) 03 system (copyright 2003, Gaussian, Inc.),
 the Gaussian(R) 98 system (copyright 1998, Gaussian, Inc.),
 the Gaussian(R) 94 system (copyright 1995, Gaussian, Inc.),
 the Gaussian 92(TM) system (copyright 1992, Gaussian, Inc.),
 the Gaussian 90(TM) system (copyright 1990, Gaussian, Inc.),
 the Gaussian 88(TM) system (copyright 1988, Gaussian, Inc.),
 the Gaussian 86(TM) system (copyright 1986, Carnegie Mellon
 University), and the Gaussian 82(TM) system (copyright 1983,
 Carnegie Mellon University). Gaussian is a federally registered
 trademark of Gaussian, Inc.
  
 This software contains proprietary and confidential information,
 including trade secrets, belonging to Gaussian, Inc.
  
 This software is provided under written license and may be
 used, copied, transmitted, or stored only in accord with that
 written license.
  
 The following legend is applicable only to US Government
 contracts under FAR:
  
                    RESTRICTED RIGHTS LEGEND
  
 Use, reproduction and disclosure by the US Government is
 subject to restrictions as set forth in subparagraphs (a)
 and (c) of the Commercial Computer Software - Restricted
 Rights clause in FAR 52.227-19.
  
 Gaussian, Inc.
 340 Quinnipiac St., Bldg. 40, Wallingford CT 06492
  
  
 ---------------------------------------------------------------
 Warning -- This program may not be used in any manner that
 competes with the business of Gaussian, Inc. or will provide
 assistance to any competitor of Gaussian, Inc.  The licensee
 of this program is prohibited from giving any competitor of
 Gaussian, Inc. access to this program.  By using this program,
 the user acknowledges that Gaussian, Inc. is engaged in the
 business of creating and licensing software in the field of
 computational chemistry and represents and warrants to the
 licensee that it is not a competitor of Gaussian, Inc. and that
 it will not use this program in any manner prohibited above.
 ---------------------------------------------------------------
  

 Cite this work as:
 Gaussian 16, Revision A.03,
 M. J. Frisch, G. W. Trucks, H. B. Schlegel, G. E. Scuseria, 
 M. A. Robb, J. R. Cheeseman, G. Scalmani, V. Barone, 
 G. A. Petersson, H. Nakatsuji, X. Li, M. Caricato, A. V. Marenich, 
 J. Bloino, B. G. Janesko, R. Gomperts, B. Mennucci, H. P. Hratchian, 
 J. V. Ortiz, A. F. Izmaylov, J. L. Sonnenberg, D. Williams-Young, 
 F. Ding, F. Lipparini, F. Egidi, J. Goings, B. Peng, A. Petrone, 
 T. Henderson, D. Ranasinghe, V. G. Zakrzewski, J. Gao, N. Rega, 
 G. Zheng, W. Liang, M. Hada, M. Ehara, K. Toyota, R. Fukuda, 
 J. Hasegawa, M. Ishida, T. Nakajima, Y. Honda, O. Kitao, H. Nakai, 
 T. Vreven, K. Throssell, J. A. Montgomery, Jr., J. E. Peralta, 
 F. Ogliaro, M. J. Bearpark, J. J. Heyd, E. N. Brothers, K. N. Kudin, 
 V. N. Staroverov, T. A. Keith, R. Kobayashi, J. Normand, 
 K. Raghavachari, A. P. Rendell, J. C. Burant, S. S. Iyengar, 
 J. Tomasi, M. Cossi, J. M. Millam, M. Klene, C. Adamo, R. Cammi, 
 J. W. Ochterski, R. L. Martin, K. Morokuma, O. Farkas, 
 J. B. Foresman, and D. J. Fox, Gaussian, Inc., Wallingford CT, 2016.
 
 ******************************************
 Gaussian 16:  ES64L-G16RevA.03 25-Dec-2016
                23-Jan-2026 
 ******************************************
 %nprocshared=16
 Will use up to   16 processors via shared memory.
 %mem=16GB
 %oldchk=DDL-LR-4.chk
 %chk=DDL-LR-Eq-4.chk
 Copying data from "DDL-LR-4.chk" to current chk file "DDL-LR-Eq-4.chk"
 IOpt=  2 FromEx=T IUOpen= 4 IOptOp= 5 NList=   0 IFRang= 0 IUIn= 4 IUOut= 2.
 ----------------------------------------------------------------------
 #p CAM-B3LYP TZVP em=gd3bj td(Eqsolv,nstates=6,root=1) scrf=(Solvent=T
 etraHydroFuran) Geom=Check Guess=Read
 ----------------------------------------------------------------------
 1/29=2,38=1,172=1/1;
 2/12=2,40=1/2;
 3/5=19,7=101,11=9,14=-4,25=1,30=1,70=2201,72=20,74=-40,116=-2,124=41/1,2,3,8;
 4/5=1/1;
 5/5=2,38=6,53=20/2;
 8/6=1,10=1,107=1,108=6/1;
 9/8=1,41=6,42=1,70=2,73=2/14;
 6/7=2,8=2,9=2,10=2/1;
 99/5=1,9=1/99;
 Leave Link    1 at Fri Jan 23 15:28:21 2026, MaxMem=  2147483648 cpu:               0.8 elap:               0.1
 (Enter /data/home/wyx/g16/l101.exe)
 -------------------
 Title Card Required
 -------------------
 Structure from the checkpoint file:  "DDL-LR-Eq-4.chk"
 Charge =  0 Multiplicity = 1
 Z-Matrix found in chk file.
 O,0,2.839421,-1.57264,0.048152
 O,0,-3.428654,-1.646247,-0.121592
 N,0,-0.662201,1.517198,-0.202023
 H,0,-0.973828,2.477465,-0.251968
 C,0,-1.247513,-0.762104,-0.203101
 C,0,0.680986,1.331579,-0.031141
 C,0,-1.636011,0.575649,-0.243178
 C,0,-2.213017,-1.844705,-0.175252
 C,0,0.196604,-1.085194,-0.204921
 H,0,0.412075,-1.894741,0.500373
 H,0,0.470926,-1.553803,-1.167351
 C,0,1.147796,0.025634,0.036418
 C,0,2.517546,-0.401163,0.275026
 C,0,-3.024467,1.103643,-0.344409
 H,0,-3.022323,2.186079,-0.465058
 H,0,-3.552581,0.662731,-1.184804
 H,0,-3.604974,0.858342,0.541022
 C,0,-1.711074,-3.265541,-0.185786
 H,0,-2.523113,-3.926939,-0.468945
 H,0,-0.875891,-3.422496,-0.862191
 H,0,-1.376159,-3.556394,0.809912
 C,0,3.563273,0.529112,0.840553
 H,0,4.069925,1.069899,0.038479
 H,0,3.157905,1.257314,1.538206
 H,0,4.306638,-0.081406,1.348611
 C,0,1.469123,2.597785,0.02607
 H,0,1.698388,2.895827,1.049694
 H,0,2.408054,2.509173,-0.51047
 H,0,0.913146,3.415943,-0.430325
 Recover connectivity data from disk.
 ITRead=  0  0  0  0  0  0  0  0  0  0  0  0  0  0  0  0  0  0  0  0
 ITRead=  0  0  0  0  0  0  0  0  0
 MicOpt= -1 -1 -1 -1 -1 -1 -1 -1 -1 -1 -1 -1 -1 -1 -1 -1 -1 -1 -1 -1
 MicOpt= -1 -1 -1 -1 -1 -1 -1 -1 -1
 NAtoms=     29 NQM=       29 NQMF=       0 NMMI=      0 NMMIF=      0
                NMic=       0 NMicF=      0.
                    Isotopes and Nuclear Properties:
 (Nuclear quadrupole moments (NQMom) in fm**2, nuclear magnetic moments (NMagM)
  in nuclear magnetons)

  Atom         1           2           3           4           5           6           7           8           9          10
 IAtWgt=          16          16          14           1          12          12          12          12          12           1
 AtmWgt=  15.9949146  15.9949146  14.0030740   1.0078250  12.0000000  12.0000000  12.0000000  12.0000000  12.0000000   1.0078250
 NucSpn=           0           0           2           1           0           0           0           0           0           1
 AtZEff=   5.6000000   5.6000000   4.5500000   1.0000000   3.6000000   3.6000000   3.6000000   3.6000000   3.6000000   1.0000000
 NQMom=    0.0000000   0.0000000   2.0440000   0.0000000   0.0000000   0.0000000   0.0000000   0.0000000   0.0000000   0.0000000
 NMagM=    0.0000000   0.0000000   0.4037610   2.7928460   0.0000000   0.0000000   0.0000000   0.0000000   0.0000000   2.7928460
 AtZNuc=   8.0000000   8.0000000   7.0000000   1.0000000   6.0000000   6.0000000   6.0000000   6.0000000   6.0000000   1.0000000

  Atom        11          12          13          14          15          16          17          18          19          20
 IAtWgt=           1          12          12          12           1           1           1          12           1           1
 AtmWgt=   1.0078250  12.0000000  12.0000000  12.0000000   1.0078250   1.0078250   1.0078250  12.0000000   1.0078250   1.0078250
 NucSpn=           1           0           0           0           1           1           1           0           1           1
 AtZEff=   1.0000000   3.6000000   3.6000000   3.6000000   1.0000000   1.0000000   1.0000000   3.6000000   1.0000000   1.0000000
 NQMom=    0.0000000   0.0000000   0.0000000   0.0000000   0.0000000   0.0000000   0.0000000   0.0000000   0.0000000   0.0000000
 NMagM=    2.7928460   0.0000000   0.0000000   0.0000000   2.7928460   2.7928460   2.7928460   0.0000000   2.7928460   2.7928460
 AtZNuc=   1.0000000   6.0000000   6.0000000   6.0000000   1.0000000   1.0000000   1.0000000   6.0000000   1.0000000   1.0000000

  Atom        21          22          23          24          25          26          27          28          29
 IAtWgt=           1          12           1           1           1          12           1           1           1
 AtmWgt=   1.0078250  12.0000000   1.0078250   1.0078250   1.0078250  12.0000000   1.0078250   1.0078250   1.0078250
 NucSpn=           1           0           1           1           1           0           1           1           1
 AtZEff=   1.0000000   3.6000000   1.0000000   1.0000000   1.0000000   3.6000000   1.0000000   1.0000000   1.0000000
 NQMom=    0.0000000   0.0000000   0.0000000   0.0000000   0.0000000   0.0000000   0.0000000   0.0000000   0.0000000
 NMagM=    2.7928460   0.0000000   2.7928460   2.7928460   2.7928460   0.0000000   2.7928460   2.7928460   2.7928460
 AtZNuc=   1.0000000   6.0000000   1.0000000   1.0000000   1.0000000   6.0000000   1.0000000   1.0000000   1.0000000
 Leave Link  101 at Fri Jan 23 15:28:24 2026, MaxMem=  2147483648 cpu:               0.9 elap:               0.1
 (Enter /data/home/wyx/g16/l202.exe)
                          Input orientation:                          
 ---------------------------------------------------------------------
 Center     Atomic      Atomic             Coordinates (Angstroms)
 Number     Number       Type             X           Y           Z
 ---------------------------------------------------------------------
      1          8           0        2.839421   -1.572640    0.048152
      2          8           0       -3.428654   -1.646247   -0.121592
      3          7           0       -0.662201    1.517198   -0.202023
      4          1           0       -0.973828    2.477465   -0.251968
      5          6           0       -1.247513   -0.762104   -0.203101
      6          6           0        0.680986    1.331579   -0.031141
      7          6           0       -1.636011    0.575649   -0.243178
      8          6           0       -2.213017   -1.844705   -0.175252
      9          6           0        0.196604   -1.085194   -0.204921
     10          1           0        0.412075   -1.894741    0.500373
     11          1           0        0.470926   -1.553803   -1.167351
     12          6           0        1.147796    0.025634    0.036418
     13          6           0        2.517546   -0.401163    0.275026
     14          6           0       -3.024467    1.103643   -0.344409
     15          1           0       -3.022323    2.186079   -0.465058
     16          1           0       -3.552581    0.662731   -1.184804
     17          1           0       -3.604974    0.858342    0.541022
     18          6           0       -1.711074   -3.265541   -0.185786
     19          1           0       -2.523113   -3.926939   -0.468945
     20          1           0       -0.875891   -3.422496   -0.862191
     21          1           0       -1.376159   -3.556394    0.809912
     22          6           0        3.563273    0.529112    0.840553
     23          1           0        4.069925    1.069899    0.038479
     24          1           0        3.157905    1.257314    1.538206
     25          1           0        4.306638   -0.081406    1.348611
     26          6           0        1.469123    2.597785    0.026070
     27          1           0        1.698388    2.895827    1.049694
     28          1           0        2.408054    2.509173   -0.510470
     29          1           0        0.913146    3.415943   -0.430325
 ---------------------------------------------------------------------
                    Distance matrix (angstroms):
                    1          2          3          4          5
     1  O    0.000000
     2  O    6.270805   0.000000
     3  N    4.676649   4.203227   0.000000
     4  H    5.570843   4.800851   1.010801   0.000000
     5  C    4.174102   2.354937   2.353255   3.251476   0.000000
     6  C    3.619339   5.075901   1.366677   2.024902   2.851699
     7  C    4.972877   2.857477   1.355180   2.013819   1.393600
     8  C    5.064687   1.232898   3.702450   4.496958   1.450861
     9  C    2.699283   3.669362   2.740438   3.750288   1.479819
    10  H    2.490032   3.898691   3.645375   4.647895   2.128843
    11  H    2.662249   4.038426   3.412753   4.379082   2.123581
    12  C    2.327276   4.874838   2.357479   3.255139   2.532865
    13  C    1.235894   6.088090   3.744125   4.555646   3.812421
    14  C    6.457691   2.788352   2.402416   2.470031   2.580416
    15  H    6.982220   3.869082   2.467137   2.080059   3.451138
    16  H    6.882932   2.545026   3.170216   3.288375   2.882227
    17  H    6.905275   2.596750   3.105820   3.189565   2.955873
    18  C    4.860828   2.361422   4.896426   5.790512   2.546053
    19  H    5.879361   2.478349   5.759589   6.592705   3.422573
    20  H    4.249028   3.196896   4.988192   5.932243   2.765897
    21  H    4.720876   2.954505   5.222555   6.139781   2.975030
    22  C    2.359920   7.385456   4.462948   5.057170   5.089215
    23  H    2.915004   7.976952   4.759300   5.244525   5.629364
    24  H    3.214083   7.387040   4.205847   4.665266   5.149554
    25  H    2.463270   8.027762   5.445123   6.082187   5.806871
    26  C    4.389835   6.482425   2.400466   2.461664   4.326833
    27  H    4.719347   6.949022   3.006625   3.001681   4.860894
    28  H    4.142383   7.175368   3.241237   3.391895   4.915170
    29  H    5.368932   6.676250   2.477715   2.115000   4.709156
                    6          7          8          9         10
     6  C    0.000000
     7  C    2.446398   0.000000
     8  C    4.299395   2.489109   0.000000
     9  C    2.470955   2.473528   2.526660   0.000000
    10  H    3.280848   3.293987   2.711103   1.095095   0.000000
    11  H    3.108139   3.134939   2.876184   1.105042   1.703234
    12  C    1.388513   2.851363   3.852017   1.482211   2.108170
    13  C    2.543440   4.298224   4.966366   2.466783   2.591248
    14  C    3.725651   1.488904   3.062649   3.896891   4.638295
    15  H    3.825304   2.136487   4.121430   4.596780   5.420354
    16  H    4.438624   2.137167   3.016764   4.251094   5.009888
    17  H    4.349802   2.138153   3.123629   4.334254   4.870093
    18  C    5.184533   3.842352   1.506928   2.897156   2.618715
    19  H    6.173324   4.594695   2.125585   3.942345   3.699288
    20  H    5.071069   4.116567   2.179270   2.654285   2.418568
    21  H    5.369497   4.272037   2.144938   3.100048   2.460627
    22  C    3.116309   5.311233   6.327116   3.877301   3.990092
    23  H    3.399740   5.734224   6.929355   4.439176   4.730994
    24  H    2.933171   5.159421   6.434692   4.158742   4.307218
    25  H    4.128631   6.187131   6.923676   4.507042   4.378962
    26  C    1.492552   3.715291   5.773595   3.903459   4.639515
    27  H    2.156428   4.262976   6.266756   4.435983   4.990581
    28  H    2.144586   4.490481   6.357902   4.231235   4.939655
    29  H    2.134905   3.821059   6.124735   4.563384   5.414853
                   11         12         13         14         15
    11  H    0.000000
    12  C    2.098055   0.000000
    13  C    2.756390   1.454409   0.000000
    14  C    4.467329   4.326073   5.775989   0.000000
    15  H    5.165532   4.723229   6.158871   1.089141   0.000000
    16  H    4.593684   4.898042   6.333199   1.086081   1.766295
    17  H    5.034873   4.851479   6.256385   1.086807   1.764813
    18  C    2.941877   4.365128   5.128181   4.565077   5.614047
    19  H    3.883789   5.417915   6.196195   5.057037   6.133369
    20  H    2.323586   4.097854   4.683709   5.036905   6.018388
    21  H    3.366254   4.449670   5.040092   5.075955   6.108306
    22  C    4.234716   2.595121   1.509562   6.718076   6.915218
    23  H    4.614177   3.103116   2.151711   7.104797   7.197179
    24  H    4.737328   2.795164   2.180878   6.464486   6.562842
    25  H    4.817749   3.422220   2.110848   7.616808   7.883182
    26  C    4.433546   2.592165   3.186669   4.749954   4.536937
    27  H    5.120660   3.093200   3.484433   5.240306   5.008326
    28  H    4.548816   2.838187   3.016463   5.613856   5.440170
    29  H    5.043525   3.430321   4.200228   4.567155   4.123310
                   16         17         18         19         20
    16  H    0.000000
    17  H    1.737666   0.000000
    18  C    4.452023   4.595815   0.000000
    19  H    4.757870   5.008929   1.084912   0.000000
    20  H    4.894673   5.267113   1.086135   1.767044   0.000000
    21  H    5.149439   4.952758   1.090036   1.757351   1.750464
    22  C    7.399683   7.182052   6.578108   7.656061   6.182291
    23  H    7.730770   7.694243   7.229542   8.288186   6.741952
    24  H    7.266288   6.847634   6.865517   7.948528   6.628276
    25  H    8.290914   8.008054   6.978965   8.045939   6.550506
    26  C    5.516173   5.388627   6.673614   7.665182   6.521647
    27  H    6.127999   5.704011   7.149356   8.165627   7.085437
    28  H    6.276404   6.323558   7.100701   8.108124   6.789160
    29  H    5.300201   5.281879   7.182518   8.107236   7.081766
                   21         22         23         24         25
    21  H    0.000000
    22  C    6.410171   0.000000
    23  H    7.187317   1.092003   0.000000
    24  H    6.652814   1.086886   1.765244   0.000000
    25  H    6.682808   1.087863   1.760109   1.774177   0.000000
    26  C    6.825244   3.054219   3.016415   2.633515   4.120518
    27  H    7.151328   3.020410   3.159234   2.248012   3.969413
    28  H    7.270129   2.660909   2.265981   2.515254   3.711051
    29  H    7.442620   4.119721   3.960928   3.684255   5.187663
                   26         27         28         29
    26  C    0.000000
    27  H    1.090503   0.000000
    28  H    1.085043   1.757054   0.000000
    29  H    1.089399   1.754304   1.750259   0.000000
 Stoichiometry    C11H15NO2
 Framework group  C1[X(C11H15NO2)]
 Deg. of freedom    81
 Full point group                 C1      NOp   1
 RotChk:  IX=0 Diff= 3.96D-16
 Largest Abelian subgroup         C1      NOp   1
 Largest concise Abelian subgroup C1      NOp   1
                         Standard orientation:                         
 ---------------------------------------------------------------------
 Center     Atomic      Atomic             Coordinates (Angstroms)
 Number     Number       Type             X           Y           Z
 ---------------------------------------------------------------------
      1          8           0        2.284489   -2.284716   -0.265779
      2          8           0       -3.625876   -0.258165    0.266831
      3          7           0        0.019246    1.803153   -0.095343
      4          1           0        0.045173    2.813601   -0.101714
      5          6           0       -1.295030   -0.148384   -0.050716
      6          6           0        1.231876    1.173058   -0.077574
      7          6           0       -1.213166    1.242725   -0.035386
      8          6           0       -2.560004   -0.847577    0.075651
      9          6           0       -0.051833   -0.933658   -0.217055
     10          1           0       -0.049903   -1.800142    0.452598
     11          1           0       -0.051243   -1.422289   -1.208194
     12          6           0        1.236839   -0.215441   -0.074088
     13          6           0        2.400211   -1.084620    0.005904
     14          6           0       -2.345944    2.207148    0.024106
     15          1           0       -1.992447    3.231362   -0.086595
     16          1           0       -3.074773    2.006329   -0.755670
     17          1           0       -2.881065    2.128968    0.966805
     18          6           0       -2.568780   -2.352405   -0.003397
     19          1           0       -3.580388   -2.691804   -0.199588
     20          1           0       -1.909010   -2.747470   -0.770415
     21          1           0       -2.250881   -2.783490    0.945962
     22          6           0        3.749943   -0.582781    0.458848
     23          1           0        4.323799   -0.205537   -0.390178
     24          1           0        3.686774    0.206108    1.203822
     25          1           0        4.292766   -1.428653    0.875131
     26          6           0        2.401241    2.100356   -0.097958
     27          1           0        2.821053    2.257789    0.896110
     28          1           0        3.195459    1.728687   -0.737019
     29          1           0        2.108949    3.076985   -0.482080
 ---------------------------------------------------------------------
 Rotational constants (GHZ):           1.0750734           0.4899629           0.3432279
 Leave Link  202 at Fri Jan 23 15:28:24 2026, MaxMem=  2147483648 cpu:               0.0 elap:               0.0
 (Enter /data/home/wyx/g16/l301.exe)
 Standard basis: TZVP (5D, 7F)
 Ernie: Thresh=  0.10000D-02 Tol=  0.10000D-05 Strict=F.
 There are   370 symmetry adapted cartesian basis functions of A   symmetry.
 There are   356 symmetry adapted basis functions of A   symmetry.
   356 basis functions,   610 primitive gaussians,   370 cartesian basis functions
    52 alpha electrons       52 beta electrons
       nuclear repulsion energy       899.4608969052 Hartrees.
 IExCor=20419 DFT=T Ex+Corr=CAM-B3LYP ExCW=0 ScaHFX=  1.000000
 ScaDFX=  1.000000  1.000000  1.000000  0.810000 ScalE2=  1.000000  1.000000
 IRadAn=      5 IRanWt=     -1 IRanGd=            0 ICorTp=0 IEmpDi=141
 HFx  wShort=  0.000000 wLong=  0.330000 cFull=  0.190000 cShort=  0.000000 cLong=  0.460000
 DFx  wShort=  0.000000 wLong=  0.330000 cFull=  0.190000 cShort=  0.000000 cLong=  0.460000
 NAtoms=   29 NActive=   29 NUniq=   29 SFac= 1.00D+00 NAtFMM=   60 NAOKFM=F Big=F
 Integral buffers will be    131072 words long.
 Raffenetti 1 integral format.
 Two-electron integral symmetry is turned on.
 R6Disp:  Grimme-D3(BJ) Dispersion energy=       -0.0261346867 Hartrees.
 Nuclear repulsion after empirical dispersion term =      899.4347622185 Hartrees.
 ------------------------------------------------------------------------------
 Polarizable Continuum Model (PCM)
 =================================
 Model                : PCM.
 Atomic radii         : UFF (Universal Force Field).
 Polarization charges : Total charges.
 Charge compensation  : None.
 Solution method      : On-the-fly selection.
 Cavity type          : Scaled VdW (van der Waals Surface) (Alpha=1.100).
 Cavity algorithm     : GePol (No added spheres)
                        Default sphere list used, NSphG=   29.
                        Lebedev-Laikov grids with approx.  5.0 points / Ang**2.
                        Smoothing algorithm: York/Karplus (Gamma=1.0000).
                        Polarization charges: spherical gaussians, with
                                              point-specific exponents (IZeta= 3).
                        Self-potential: point-specific (ISelfS= 7).
                        Self-field    : sphere-specific E.n sum rule (ISelfD= 2).
 Solvent              : TetraHydroFuran, Eps=   7.425700 Eps(inf)=   1.974025
 ------------------------------------------------------------------------------
 GePol: Number of generator spheres                  =      29
 GePol: Total number of spheres                      =      29
 GePol: Number of exposed spheres                    =      29 (100.00%)
 GePol: Number of points                             =    2102
 GePol: Average weight of points                     =       0.13
 GePol: Minimum weight of points                     =   0.14D-11
 GePol: Maximum weight of points                     =    0.20577
 GePol: Number of points with low weight             =     127
 GePol: Fraction of low-weight points (<1% of avg)   =       6.04%
 GePol: Cavity surface area                          =    269.055 Ang**2
 GePol: Cavity volume                                =    287.082 Ang**3
 Leave Link  301 at Fri Jan 23 15:28:25 2026, MaxMem=  2147483648 cpu:               0.6 elap:               0.0
 (Enter /data/home/wyx/g16/l302.exe)
 NPDir=0 NMtPBC=     1 NCelOv=     1 NCel=       1 NClECP=     1 NCelD=      1
         NCelK=      1 NCelE2=     1 NClLst=     1 CellRange=     0.0.
 One-electron integrals computed using PRISM.
 One-electron integral symmetry used in STVInt
 NBasis=   356 RedAO= T EigKep=  4.19D-05  NBF=   356
 NBsUse=   356 1.00D-06 EigRej= -1.00D+00 NBFU=   356
 Precomputing XC quadrature grid using
 IXCGrd= 4 IRadAn=           5 IRanWt=          -1 IRanGd=           0 AccXCQ= 0.00D+00.
 Generated NRdTot=       0 NPtTot=           0 NUsed=           0 NTot=          32
 NSgBfM=   366   366   366   366   366 MxSgAt=    29 MxSgA2=    29.
 Leave Link  302 at Fri Jan 23 15:28:25 2026, MaxMem=  2147483648 cpu:               3.1 elap:               0.2
 (Enter /data/home/wyx/g16/l303.exe)
 DipDrv:  MaxL=1.
 Leave Link  303 at Fri Jan 23 15:28:25 2026, MaxMem=  2147483648 cpu:               0.6 elap:               0.0
 (Enter /data/home/wyx/g16/l308.exe)
 Leave Link  308 at Fri Jan 23 15:28:25 2026, MaxMem=  2147483648 cpu:               0.7 elap:               0.1
 (Enter /data/home/wyx/g16/l401.exe)
 Initial guess from the checkpoint file:  "DDL-LR-Eq-4.chk"
 B after Tr=     0.000000    0.000000   -0.000000
         Rot=    1.000000    0.000000    0.000000    0.000000 Ang=   0.00 deg.
 Guess basis will be translated and rotated to current coordinates.
 JPrj=2 DoOrth=T DoCkMO=T.
 Leave Link  401 at Fri Jan 23 15:28:26 2026, MaxMem=  2147483648 cpu:               2.2 elap:               0.2
 (Enter /data/home/wyx/g16/l502.exe)
 Integral symmetry usage will be decided dynamically.
 Closed shell SCF:
 Using DIIS extrapolation, IDIIS=  1040.
 NGot=  2147483648 LenX=  2147200095 LenY=  2147062754
 Requested convergence on RMS density matrix=1.00D-08 within 128 cycles.
 Requested convergence on MAX density matrix=1.00D-06.
 Requested convergence on             energy=1.00D-06.
 No special actions if energy rises.
 Fock matrices will be formed incrementally for  20 cycles.

 Cycle   1  Pass 1  IDiag  1:
 FoFJK:  IHMeth= 1 ICntrl=       0 DoSepK=T KAlg= 0 I1Cent=           0 FoldK=F
 IRaf=         1 NMat=       1 IRICut=       1 DoRegI=T DoRafI=F ISym2E= 0 IDoP0=0 IntGTp=1.
 FoFCou: FMM=F IPFlag=           0 FMFlag=      100000 FMFlg1=           0
         NFxFlg=           0 DoJE=T BraDBF=F KetDBF=F FulRan=T
         wScrn=  0.000000 ICntrl=       500 IOpCl=  0 I1Cent=           0 NGrid=           0
         NMat0=    1 NMatS0=      1 NMatT0=    0 NMatD0=    1 NMtDS0=    0 NMtDT0=    0
 Symmetry not used in FoFCou.
 Inv3:  Mode=1 IEnd=    13255212.
 Iteration    1 A*A^-1 deviation from unit magnitude is 3.00D-15 for    365.
 Iteration    1 A*A^-1 deviation from orthogonality  is 2.28D-15 for   1363      3.
 Iteration    1 A^-1*A deviation from unit magnitude is 2.89D-15 for    365.
 Iteration    1 A^-1*A deviation from orthogonality  is 3.15D-15 for   1093     55.
 E= -633.321962836868    
 DIIS: error= 1.15D-08 at cycle   1 NSaved=   1.
 NSaved= 1 IEnMin= 1 EnMin= -633.321962836868     IErMin= 1 ErrMin= 1.15D-08
 ErrMax= 1.15D-08  0.00D+00 EMaxC= 1.00D-01 BMatC= 6.20D-14 BMatP= 6.20D-14
 IDIUse=1 WtCom= 1.00D+00 WtEn= 0.00D+00
 Coeff-Com:  0.100D+01
 Coeff:      0.100D+01
 Gap=     0.220 Goal=   None    Shift=    0.000
 RMSDP=3.38D-09 MaxDP=1.06D-07              OVMax= 2.15D-07

 Error on total polarization charges =  0.01434
 SCF Done:  E(RCAM-B3LYP) =  -633.321962837     A.U. after    1 cycles
            NFock=  1  Conv=0.34D-08     -V/T= 2.0042
 KE= 6.306625787098D+02 PE=-3.274839631149D+03 EE= 1.111420327384D+03
 Leave Link  502 at Fri Jan 23 15:28:31 2026, MaxMem=  2147483648 cpu:              85.7 elap:               5.6
 (Enter /data/home/wyx/g16/l801.exe)
 DoSCS=F DFT=T ScalE2(SS,OS)=  1.000000  1.000000
 ExpMin= 9.52D-02 ExpMax= 2.70D+04 ExpMxC= 9.22D+02 IAcc=3 IRadAn=         5 AccDes= 0.00D+00
 HarFok:  IExCor=  205 AccDes= 0.00D+00 IRadAn=         5 IDoV=-2 UseB2=F ITyADJ=14
 ICtDFT= 12500011 ScaDFX=  1.000000  1.000000  1.000000  1.000000
 Largest valence mixing into a core orbital is  5.59D-05
 Largest core mixing into a valence orbital is  1.15D-05
 Range of M.O.s used for correlation:    15   356
 NBasis=   356 NAE=    52 NBE=    52 NFC=    14 NFV=     0
 NROrb=    342 NOA=    38 NOB=    38 NVA=   304 NVB=   304

 **** Warning!!: The largest alpha MO coefficient is  0.61261218D+02

 Leave Link  801 at Fri Jan 23 15:28:33 2026, MaxMem=  2147483648 cpu:               1.0 elap:               0.1
 (Enter /data/home/wyx/g16/l914.exe)
 RHF ground state
 Two-electron integrals replicated using symmetry.
 MDV=  2147483648 DFT=T DoStab=F Mixed=T DoRPA=T DoScal=F NonHer=T
 NEqPCM:  Using equilibrium solvation (IEInf=0, Eps=   7.4257, EpsInf=   1.9740)
 Making orbital integer symmetry assigments:
 Orbital symmetries:
       Occupied  (A) (A) (A) (A) (A) (A) (A) (A) (A) (A) (A) (A)
                 (A) (A) (A) (A) (A) (A) (A) (A) (A) (A) (A) (A)
                 (A) (A) (A) (A) (A) (A) (A) (A) (A) (A) (A) (A)
                 (A) (A) (A) (A) (A) (A) (A) (A) (A) (A) (A) (A)
                 (A) (A) (A) (A)
       Virtual   (A) (A) (A) (A) (A) (A) (A) (A) (A) (A) (A) (A)
                 (A) (A) (A) (A) (A) (A) (A) (A) (A) (A) (A) (A)
                 (A) (A) (A) (A) (A) (A) (A) (A) (A) (A) (A) (A)
                 (A) (A) (A) (A) (A) (A) (A) (A) (A) (A) (A) (A)
                 (A) (A) (A) (A) (A) (A) (A) (A) (A) (A) (A) (A)
                 (A) (A) (A) (A) (A) (A) (A) (A) (A) (A) (A) (A)
                 (A) (A) (A) (A) (A) (A) (A) (A) (A) (A) (A) (A)
                 (A) (A) (A) (A) (A) (A) (A) (A) (A) (A) (A) (A)
                 (A) (A) (A) (A) (A) (A) (A) (A) (A) (A) (A) (A)
                 (A) (A) (A) (A) (A) (A) (A) (A) (A) (A) (A) (A)
                 (A) (A) (A) (A) (A) (A) (A) (A) (A) (A) (A) (A)
                 (A) (A) (A) (A) (A) (A) (A) (A) (A) (A) (A) (A)
                 (A) (A) (A) (A) (A) (A) (A) (A) (A) (A) (A) (A)
                 (A) (A) (A) (A) (A) (A) (A) (A) (A) (A) (A) (A)
                 (A) (A) (A) (A) (A) (A) (A) (A) (A) (A) (A) (A)
                 (A) (A) (A) (A) (A) (A) (A) (A) (A) (A) (A) (A)
                 (A) (A) (A) (A) (A) (A) (A) (A) (A) (A) (A) (A)
                 (A) (A) (A) (A) (A) (A) (A) (A) (A) (A) (A) (A)
                 (A) (A) (A) (A) (A) (A) (A) (A) (A) (A) (A) (A)
                 (A) (A) (A) (A) (A) (A) (A) (A) (A) (A) (A) (A)
                 (A) (A) (A) (A) (A) (A) (A) (A) (A) (A) (A) (A)
                 (A) (A) (A) (A) (A) (A) (A) (A) (A) (A) (A) (A)
                 (A) (A) (A) (A) (A) (A) (A) (A) (A) (A) (A) (A)
                 (A) (A) (A) (A) (A) (A) (A) (A) (A) (A) (A) (A)
                 (A) (A) (A) (A) (A) (A) (A) (A) (A) (A) (A) (A)
                 (A) (A) (A) (A)
    24 initial guesses have been made.
 Convergence on wavefunction:    0.001000000000000
 Davidson Disk Diagonalization:  ConvIn= 1.00D-03 SkipCon=T Conv= 1.00D-03.
 Max sub-space:  2000 roots to seek:    24 dimension of matrix:        23104
 Iteration     1 Dimension    24 NMult     0 NNew     24
 CISAX will form    24 AO SS matrices at one time.
 NMat=    24 NSing=    24 JSym2X= 0.
 FoFJK:  IHMeth= 1 ICntrl=       0 DoSepK=T KAlg= 0 I1Cent=           0 FoldK=F
 IRaf=         1 NMat=      48 IRICut=       1 DoRegI=T DoRafI=F ISym2E= 0 IDoP0=3 IntGTp=3.
 FoFCou: FMM=F IPFlag=           0 FMFlag=      100000 FMFlg1=           0
         NFxFlg=           0 DoJE=F BraDBF=F KetDBF=F FulRan=T
         wScrn=  0.000000 ICntrl=       500 IOpCl=  0 I1Cent=           0 NGrid=           0
         NMat0=   24 NMatS0=     24 NMatT0=    0 NMatD0=   24 NMtDS0=    0 NMtDT0=    0
 Symmetry not used in FoFCou.
 New state      2 was old state      3
 New state      3 was old state      4
 New state      4 was old state      2
 New state      5 was old state      6
 New state      6 was old state      5
 Excitation Energies [eV] at current iteration:
 Root      1 :     3.437613057104394
 Root      2 :     4.172559355982668
 Root      3 :     4.384062602821546
 Root      4 :     5.290266344183419
 Root      5 :     5.890205537381672
 Root      6 :     6.068024357918091
 Root      7 :     6.453374388379547
 Root      8 :     6.695128757071100
 Root      9 :     6.818674210602872
 Root     10 :     6.960975487578906
 Root     11 :     7.067019990181388
 Root     12 :     7.270428863686101
 Root     13 :     7.344665881102578
 Root     14 :     7.371559400932063
 Root     15 :     7.608164072528318
 Root     16 :     7.942430640559640
 Root     17 :     7.964781482697858
 Root     18 :     8.096045667767486
 Root     19 :     8.138263712686543
 Root     20 :     8.318569082626187
 Root     21 :     8.373934090945340
 Root     22 :     8.509883074030602
 Root     23 :     8.624511109871060
 Root     24 :     8.776309347037342
 Iteration     2 Dimension    36 NMult    24 NNew     12
 CISAX will form    12 AO SS matrices at one time.
 NMat=    12 NSing=    12 JSym2X= 0.
 Root      1 not converged, maximum delta is    0.042371450217603
 Root      2 not converged, maximum delta is    0.076299958656621
 Root      3 not converged, maximum delta is    0.090779182125522
 Root      4 not converged, maximum delta is    0.322138790142094
 New state      5 was old state      6
 Root      5 not converged, maximum delta is    0.317535407593455
 New state      6 was old state      5
 Root      6 not converged, maximum delta is    0.134537042493364
 Excitation Energies [eV] at current iteration:
 Root      1 :     3.000950090387681   Change is   -0.436662966716713
 Root      2 :     3.957476478164442   Change is   -0.215082877818226
 Root      3 :     4.125686683714144   Change is   -0.258375919107401
 Root      4 :     4.893938851462742   Change is   -0.396327492720676
 Root      5 :     5.341529464282108   Change is   -0.726494893635983
 Root      6 :     5.785391615328366   Change is   -0.104813922053306
 Iteration     3 Dimension    48 NMult    36 NNew     12
 CISAX will form    12 AO SS matrices at one time.
 NMat=    12 NSing=    12 JSym2X= 0.
 Root      1 not converged, maximum delta is    0.006502948516526
 Root      2 not converged, maximum delta is    0.016753314756946
 Root      3 not converged, maximum delta is    0.013511234693875
 Root      4 not converged, maximum delta is    0.014957217747132
 Root      5 not converged, maximum delta is    0.015635621879571
 Root      6 not converged, maximum delta is    0.006695896845857
 Excitation Energies [eV] at current iteration:
 Root      1 :     2.986154355308412   Change is   -0.014795735079270
 Root      2 :     3.945069271165880   Change is   -0.012407206998562
 Root      3 :     4.111873056308864   Change is   -0.013813627405280
 Root      4 :     4.874266734214044   Change is   -0.019672117248699
 Root      5 :     5.322138115431094   Change is   -0.019391348851014
 Root      6 :     5.781023954065490   Change is   -0.004367661262875
 Iteration     4 Dimension    60 NMult    48 NNew     12
 CISAX will form    12 AO SS matrices at one time.
 NMat=    12 NSing=    12 JSym2X= 0.
 Root      1 not converged, maximum delta is    0.002288411502035
 Root      2 not converged, maximum delta is    0.001874770009292
 Root      3 not converged, maximum delta is    0.002405758362582
 Root      4 not converged, maximum delta is    0.002540829929390
 Root      5 not converged, maximum delta is    0.002593970973512
 Root      6 not converged, maximum delta is    0.001971240276584
 Excitation Energies [eV] at current iteration:
 Root      1 :     2.985010506208999   Change is   -0.001143849099413
 Root      2 :     3.944470462167502   Change is   -0.000598808998378
 Root      3 :     4.110908018461608   Change is   -0.000965037847256
 Root      4 :     4.872458683955262   Change is   -0.001808050258781
 Root      5 :     5.320256616930282   Change is   -0.001881498500813
 Root      6 :     5.780746272088632   Change is   -0.000277681976858
 Iteration     5 Dimension    72 NMult    60 NNew     12
 CISAX will form    12 AO SS matrices at one time.
 NMat=    12 NSing=    12 JSym2X= 0.
 Root      1 has converged.
 Root      2 has converged.
 Root      3 has converged.
 Root      4 has converged.
 Root      5 not converged, maximum delta is    0.001012098056161
 Root      6 has converged.
 Excitation Energies [eV] at current iteration:
 Root      1 :     2.984959314565893   Change is   -0.000051191643106
 Root      2 :     3.944431074160689   Change is   -0.000039388006812
 Root      3 :     4.110866334740910   Change is   -0.000041683720697
 Root      4 :     4.872334345667110   Change is   -0.000124338288153
 Root      5 :     5.320109404335050   Change is   -0.000147212595231
 Root      6 :     5.780725263712670   Change is   -0.000021008375963
 Iteration     6 Dimension    74 NMult    72 NNew      2
 CISAX will form     2 AO SS matrices at one time.
 NMat=     2 NSing=     2 JSym2X= 0.
 Root      1 has converged.
 Root      2 has converged.
 Root      3 has converged.
 Root      4 has converged.
 Root      5 has converged.
 Root      6 has converged.
 Excitation Energies [eV] at current iteration:
 Root      1 :     2.984959273189639   Change is   -0.000000041376254
 Root      2 :     3.944431023184240   Change is   -0.000000050976450
 Root      3 :     4.110866246498200   Change is   -0.000000088242710
 Root      4 :     4.872331800379240   Change is   -0.000002545287869
 Root      5 :     5.320095835265265   Change is   -0.000013569069785
 Root      6 :     5.780725197483625   Change is   -0.000000066229045
 Convergence achieved on expansion vectors.
 ***********************************************************************
 Excited states from <AA,BB:AA,BB> singles matrix:
 ***********************************************************************
 
 1PDM for each excited state written to RWF  633
 Ground to excited state transition densities written to RWF  633
 Ground to excited state transition electric dipole moments (Au):
       state          X           Y           Z        Dip. S.      Osc.
         1         1.6264     -0.1824     -0.0497      2.6809      0.1961
         2        -0.0209     -0.0399      0.0365      0.0034      0.0003
         3        -0.0608      0.1080     -0.0250      0.0160      0.0016
         4         0.1934      1.7230     -0.0611      3.0100      0.3593
         5        -0.0705     -1.5424      0.0030      2.3839      0.3107
         6        -0.0182     -0.2138     -0.0449      0.0481      0.0068
 Ground to excited state transition velocity dipole moments (Au):
       state          X           Y           Z        Dip. S.      Osc.
         1        -0.1714      0.0158      0.0057      0.0297      0.1802
         2         0.0028      0.0061     -0.0021      0.0000      0.0002
         3         0.0085     -0.0141      0.0004      0.0003      0.0012
         4        -0.0393     -0.2948      0.0078      0.0885      0.3295
         5         0.0143      0.2955     -0.0016      0.0875      0.2985
         6         0.0051      0.0432      0.0296      0.0028      0.0087
 Ground to excited state transition magnetic dipole moments (Au):
       state          X           Y           Z
         1         0.0250     -0.0527      1.4757
         2         0.7876     -0.1148     -0.1161
         3         0.1889     -0.9709     -0.2164
         4        -0.0247      0.0669     -0.0688
         5         0.1168     -0.1007      0.2805
         6        -0.0455      0.0143     -0.0350
 Ground to excited state transition velocity quadrupole moments (Au):
       state          XX          YY          ZZ          XY          XZ          YZ
         1         0.1665     -0.0901     -0.0057      0.4886     -0.0322     -0.0181
         2         0.0220     -0.0081     -0.0089     -0.0147      0.0086      0.0778
         3        -0.0248      0.0045      0.0191     -0.0655      0.0633      0.0102
         4         1.3189     -0.2797     -0.0127     -0.0714     -0.0743      0.0303
         5        -0.4609      0.2869      0.0347      0.2311      0.0612      0.0064
         6         0.1357      0.1496     -0.1254     -0.0154     -0.0285     -0.1120
 <0|del|b> * <b|rxdel|0> + <0|del|b> * <b|delr+rdel|0>
 Rotatory Strengths (R) in cgs (10**-40 erg-esu-cm/Gauss)
       state          XX          YY          ZZ    R(velocity)    E-M Angle
         1        35.1926     14.4294    -28.1457      7.1588       89.25
         2        -1.1602      6.3462      3.1959      2.7940       72.28
         3        33.8983      3.8389     33.5442     23.7605       24.24
         4       -84.3155     -0.3911      8.5879    -25.3729      130.84
         5       -88.0096      3.0378    -18.2521    -34.4079      107.54
         6         0.5854     -2.2920     -0.4630     -0.7232      102.09
 1/2[<0|r|b>*<b|rxdel|0> + (<0|rxdel|b>*<b|r|0>)*]
 Rotatory Strengths (R) in cgs (10**-40 erg-esu-cm/Gauss)
       state          XX          YY          ZZ     R(length)
         1       -28.7373     -6.8036     51.8990      5.4527
         2        11.6597     -3.2417      2.9971      3.8050
         3         8.1224     74.1845     -3.8256     26.1604
         4         3.3833    -81.4605     -2.9753    -27.0175
         5         5.8244   -109.7853     -0.5887    -34.8499
         6        -0.5873      2.1553     -1.1091      0.1530
  1/2[<0|del|b>*<b|r|0> + (<0|r|b>*<b|del|0>)*] (Au)
       state          X           Y           Z        Dip. S.   Osc.(frdel)
         1        -0.2787     -0.0029     -0.0003      0.2819      0.1879
         2        -0.0001     -0.0002     -0.0001      0.0004      0.0003
         3        -0.0005     -0.0015     -0.0000      0.0021      0.0014
         4        -0.0076     -0.5079     -0.0005      0.5160      0.3440
         5        -0.0010     -0.4558     -0.0000      0.4568      0.3045
         6        -0.0001     -0.0092     -0.0013      0.0106      0.0071

 Excitation energies and oscillator strengths:
 
 Excited State   1:      Singlet-A      2.9850 eV  415.36 nm  f=0.1961  <S**2>=0.000
      52 -> 53         0.70146
 This state for optimization and/or second-order correction.
 Total Energy, E(TD-HF/TD-DFT) =  -633.212267602    
 Copying the excited state density for this state as the 1-particle RhoCI density.
 
 Excited State   2:      Singlet-A      3.9444 eV  314.33 nm  f=0.0003  <S**2>=0.000
      50 -> 54         0.16951
      51 -> 53         0.58620
      51 -> 54         0.31607
 
 Excited State   3:      Singlet-A      4.1109 eV  301.60 nm  f=0.0016  <S**2>=0.000
      49 -> 53         0.25459
      49 -> 54        -0.14862
      50 -> 53         0.53501
      50 -> 54        -0.24503
      50 -> 58         0.11210
      51 -> 54         0.19685
 
 Excited State   4:      Singlet-A      4.8723 eV  254.47 nm  f=0.3593  <S**2>=0.000
      52 -> 54         0.69631
 
 Excited State   5:      Singlet-A      5.3201 eV  233.05 nm  f=0.3107  <S**2>=0.000
      49 -> 53         0.61674
      50 -> 53        -0.29809
 
 Excited State   6:      Singlet-A      5.7807 eV  214.48 nm  f=0.0068  <S**2>=0.000
      52 -> 55         0.64911
      52 -> 56         0.17074
      52 -> 57         0.11924
 SavETr:  write IOETrn=   770 NScale= 10 NData=  16 NLR=1 NState=    6 LETran=     118.
 Leave Link  914 at Fri Jan 23 15:30:42 2026, MaxMem=  2147483648 cpu:            2045.4 elap:             128.2
 (Enter /data/home/wyx/g16/l601.exe)
 Copying SCF densities to generalized density rwf, IOpCl= 0 IROHF=0.

 **********************************************************************

            Population analysis using the SCF density.

 **********************************************************************

 Orbital symmetries:
       Occupied  (A) (A) (A) (A) (A) (A) (A) (A) (A) (A) (A) (A)
                 (A) (A) (A) (A) (A) (A) (A) (A) (A) (A) (A) (A)
                 (A) (A) (A) (A) (A) (A) (A) (A) (A) (A) (A) (A)
                 (A) (A) (A) (A) (A) (A) (A) (A) (A) (A) (A) (A)
                 (A) (A) (A) (A)
       Virtual   (A) (A) (A) (A) (A) (A) (A) (A) (A) (A) (A) (A)
                 (A) (A) (A) (A) (A) (A) (A) (A) (A) (A) (A) (A)
                 (A) (A) (A) (A) (A) (A) (A) (A) (A) (A) (A) (A)
                 (A) (A) (A) (A) (A) (A) (A) (A) (A) (A) (A) (A)
                 (A) (A) (A) (A) (A) (A) (A) (A) (A) (A) (A) (A)
                 (A) (A) (A) (A) (A) (A) (A) (A) (A) (A) (A) (A)
                 (A) (A) (A) (A) (A) (A) (A) (A) (A) (A) (A) (A)
                 (A) (A) (A) (A) (A) (A) (A) (A) (A) (A) (A) (A)
                 (A) (A) (A) (A) (A) (A) (A) (A) (A) (A) (A) (A)
                 (A) (A) (A) (A) (A) (A) (A) (A) (A) (A) (A) (A)
                 (A) (A) (A) (A) (A) (A) (A) (A) (A) (A) (A) (A)
                 (A) (A) (A) (A) (A) (A) (A) (A) (A) (A) (A) (A)
                 (A) (A) (A) (A) (A) (A) (A) (A) (A) (A) (A) (A)
                 (A) (A) (A) (A) (A) (A) (A) (A) (A) (A) (A) (A)
                 (A) (A) (A) (A) (A) (A) (A) (A) (A) (A) (A) (A)
                 (A) (A) (A) (A) (A) (A) (A) (A) (A) (A) (A) (A)
                 (A) (A) (A) (A) (A) (A) (A) (A) (A) (A) (A) (A)
                 (A) (A) (A) (A) (A) (A) (A) (A) (A) (A) (A) (A)
                 (A) (A) (A) (A) (A) (A) (A) (A) (A) (A) (A) (A)
                 (A) (A) (A) (A) (A) (A) (A) (A) (A) (A) (A) (A)
                 (A) (A) (A) (A) (A) (A) (A) (A) (A) (A) (A) (A)
                 (A) (A) (A) (A) (A) (A) (A) (A) (A) (A) (A) (A)
                 (A) (A) (A) (A) (A) (A) (A) (A) (A) (A) (A) (A)
                 (A) (A) (A) (A) (A) (A) (A) (A) (A) (A) (A) (A)
                 (A) (A) (A) (A) (A) (A) (A) (A) (A) (A) (A) (A)
                 (A) (A) (A) (A)
 The electronic state is 1-A.
 Alpha  occ. eigenvalues --  -19.17800 -19.16930 -14.44738 -10.33353 -10.32781
 Alpha  occ. eigenvalues --  -10.32777 -10.32147 -10.26208 -10.25372 -10.25043
 Alpha  occ. eigenvalues --  -10.24667 -10.24470 -10.24222 -10.23594  -1.11450
 Alpha  occ. eigenvalues --   -1.10903  -1.08422  -0.91451  -0.90515  -0.83961
 Alpha  occ. eigenvalues --   -0.82689  -0.81694  -0.78554  -0.73880  -0.72103
 Alpha  occ. eigenvalues --   -0.68701  -0.61604  -0.58319  -0.57018  -0.55176
 Alpha  occ. eigenvalues --   -0.54670  -0.54013  -0.52531  -0.51808  -0.50875
 Alpha  occ. eigenvalues --   -0.49736  -0.49521  -0.49288  -0.48690  -0.48050
 Alpha  occ. eigenvalues --   -0.47199  -0.45281  -0.45153  -0.43948  -0.43270
 Alpha  occ. eigenvalues --   -0.42172  -0.42152  -0.41549  -0.32628  -0.32165
 Alpha  occ. eigenvalues --   -0.31123  -0.25215
 Alpha virt. eigenvalues --   -0.03177   0.02561   0.06230   0.08021   0.08395
 Alpha virt. eigenvalues --    0.09769   0.10719   0.11584   0.12522   0.13414
 Alpha virt. eigenvalues --    0.13865   0.14827   0.15573   0.16346   0.16934
 Alpha virt. eigenvalues --    0.17483   0.17838   0.18063   0.18374   0.19222
 Alpha virt. eigenvalues --    0.19862   0.22011   0.22761   0.23490   0.23822
 Alpha virt. eigenvalues --    0.23964   0.24748   0.25633   0.26272   0.26672
 Alpha virt. eigenvalues --    0.27290   0.27998   0.28542   0.29376   0.30131
 Alpha virt. eigenvalues --    0.31654   0.31902   0.32349   0.33426   0.34307
 Alpha virt. eigenvalues --    0.34733   0.35859   0.36694   0.37827   0.38506
 Alpha virt. eigenvalues --    0.39687   0.41011   0.41374   0.41846   0.42487
 Alpha virt. eigenvalues --    0.44003   0.44780   0.45562   0.46213   0.46452
 Alpha virt. eigenvalues --    0.47296   0.47741   0.47925   0.48410   0.49169
 Alpha virt. eigenvalues --    0.49575   0.50581   0.51208   0.51429   0.51555
 Alpha virt. eigenvalues --    0.52691   0.52726   0.53310   0.53715   0.54212
 Alpha virt. eigenvalues --    0.54392   0.55354   0.55924   0.56699   0.58238
 Alpha virt. eigenvalues --    0.58451   0.59915   0.61026   0.61612   0.63024
 Alpha virt. eigenvalues --    0.64033   0.65187   0.66460   0.66795   0.67664
 Alpha virt. eigenvalues --    0.68681   0.69465   0.70845   0.71332   0.72140
 Alpha virt. eigenvalues --    0.73091   0.74522   0.75028   0.75954   0.77685
 Alpha virt. eigenvalues --    0.79049   0.80353   0.83205   0.86412   0.87378
 Alpha virt. eigenvalues --    0.91128   0.95342   1.02161   1.04077   1.22223
 Alpha virt. eigenvalues --    1.24493   1.27268   1.28371   1.29182   1.30524
 Alpha virt. eigenvalues --    1.32053   1.33017   1.34413   1.35015   1.36265
 Alpha virt. eigenvalues --    1.36643   1.37768   1.38436   1.38888   1.39689
 Alpha virt. eigenvalues --    1.39897   1.40311   1.40808   1.41316   1.41968
 Alpha virt. eigenvalues --    1.43376   1.43536   1.44231   1.45379   1.47342
 Alpha virt. eigenvalues --    1.48021   1.49472   1.50128   1.50334   1.50444
 Alpha virt. eigenvalues --    1.51335   1.52277   1.52795   1.55366   1.58443
 Alpha virt. eigenvalues --    1.59328   1.60256   1.60885   1.61566   1.62493
 Alpha virt. eigenvalues --    1.62661   1.63068   1.63743   1.64466   1.65817
 Alpha virt. eigenvalues --    1.66486   1.67030   1.67562   1.67949   1.68590
 Alpha virt. eigenvalues --    1.69058   1.69842   1.70111   1.71126   1.72446
 Alpha virt. eigenvalues --    1.74140   1.74833   1.75697   1.76593   1.78524
 Alpha virt. eigenvalues --    1.81353   1.82856   1.83922   1.85828   1.86548
 Alpha virt. eigenvalues --    1.86591   1.87996   1.88643   1.88977   1.90213
 Alpha virt. eigenvalues --    1.91270   1.94481   1.95070   1.99077   1.99725
 Alpha virt. eigenvalues --    2.01527   2.03895   2.05585   2.06821   2.09522
 Alpha virt. eigenvalues --    2.10379   2.11822   2.15655   2.17471   2.19686
 Alpha virt. eigenvalues --    2.20332   2.21248   2.22097   2.22982   2.26389
 Alpha virt. eigenvalues --    2.27131   2.27502   2.29309   2.31299   2.32347
 Alpha virt. eigenvalues --    2.33812   2.34339   2.36886   2.37942   2.39097
 Alpha virt. eigenvalues --    2.39499   2.40292   2.41447   2.42830   2.45060
 Alpha virt. eigenvalues --    2.45875   2.47914   2.49213   2.49845   2.51281
 Alpha virt. eigenvalues --    2.52444   2.54209   2.54693   2.56448   2.57524
 Alpha virt. eigenvalues --    2.58757   2.60876   2.61875   2.62525   2.63376
 Alpha virt. eigenvalues --    2.64709   2.65652   2.66579   2.67446   2.68426
 Alpha virt. eigenvalues --    2.71739   2.72049   2.73785   2.74850   2.75178
 Alpha virt. eigenvalues --    2.76486   2.76881   2.77374   2.78223   2.78965
 Alpha virt. eigenvalues --    2.80703   2.81886   2.83122   2.83952   2.84928
 Alpha virt. eigenvalues --    2.85516   2.86465   2.88831   2.89220   2.92015
 Alpha virt. eigenvalues --    2.97455   2.98918   3.00899   3.06740   3.10784
 Alpha virt. eigenvalues --    3.12328   3.14529   3.17861   3.19046   3.21457
 Alpha virt. eigenvalues --    3.22159   3.23645   3.25099   3.25812   3.26733
 Alpha virt. eigenvalues --    3.28601   3.30222   3.32619   3.34577   3.36607
 Alpha virt. eigenvalues --    3.38079   3.38817   3.39499   3.39764   3.41794
 Alpha virt. eigenvalues --    3.42133   3.44140   3.45049   3.47723   3.48509
 Alpha virt. eigenvalues --    3.49617   3.50121   3.55772   3.58472   3.60061
 Alpha virt. eigenvalues --    3.61185   3.91057   4.00724   4.33394   4.36378
 Alpha virt. eigenvalues --   21.67548  21.80773  22.08152  22.10470  22.11699
 Alpha virt. eigenvalues --   22.14911  22.15204  22.18304  22.19385  22.25011
 Alpha virt. eigenvalues --   22.27780  31.91570  43.63966  43.66789
          Condensed to atoms (all electrons):
               1          2          3          4          5          6
     1  O    7.930342   0.000000  -0.000182   0.000019   0.019444   0.009550
     2  O    0.000000   7.978276   0.000403   0.000016  -0.194670   0.001327
     3  N   -0.000182   0.000403   6.370533   0.369568  -0.120904   0.328378
     4  H    0.000019   0.000016   0.369568   0.412400   0.016287  -0.046078
     5  C    0.019444  -0.194670  -0.120904   0.016287   7.160273  -0.080596
     6  C    0.009550   0.001327   0.328378  -0.046078  -0.080596   5.569611
     7  C   -0.000109  -0.048199   0.393022  -0.037071   0.465653  -0.127105
     8  C   -0.000692   0.703259   0.004234  -0.000857  -0.342635   0.033315
     9  C   -0.004301   0.026262   0.013788   0.000090  -0.707612  -0.045608
    10  H    0.009097   0.000002  -0.001249   0.000023  -0.116133   0.028701
    11  H    0.007511   0.000124   0.003590   0.000036  -0.058014  -0.019745
    12  C   -0.230867  -0.003123  -0.088317   0.014475   0.192443  -0.081331
    13  C    0.715056  -0.000016   0.001640   0.000556   0.083655   0.125836
    14  C   -0.000008  -0.005418  -0.033040  -0.010406  -0.086766   0.010938
    15  H   -0.000000   0.004180   0.004559   0.002185   0.021442   0.006412
    16  H    0.000000   0.002188  -0.000261   0.000796  -0.005995  -0.001241
    17  H   -0.000000   0.003210  -0.002142   0.000916  -0.008873  -0.001373
    18  C    0.000258  -0.101069  -0.000497   0.000021  -0.253805   0.000049
    19  H   -0.000001   0.007641   0.000006  -0.000001   0.024033   0.000017
    20  H    0.000156   0.004213   0.000113   0.000001   0.045521  -0.001247
    21  H   -0.000004   0.000755   0.000012  -0.000001   0.002400   0.000199
    22  C   -0.105776   0.000000  -0.000199   0.000119   0.004101  -0.023519
    23  H    0.001387   0.000000   0.000017  -0.000012  -0.000021   0.008885
    24  H    0.005040  -0.000000   0.000165  -0.000056  -0.000729  -0.026397
    25  H    0.006654   0.000000   0.000022  -0.000003  -0.000142  -0.000822
    26  C    0.000791   0.000010  -0.025909  -0.006523   0.000588   0.192790
    27  H   -0.000053  -0.000000  -0.002460   0.000492   0.000375  -0.032832
    28  H   -0.000233  -0.000000   0.001220   0.000738   0.000050  -0.047590
    29  H    0.000023   0.000000   0.001909   0.001986  -0.000339  -0.049175
               7          8          9         10         11         12
     1  O   -0.000109  -0.000692  -0.004301   0.009097   0.007511  -0.230867
     2  O   -0.048199   0.703259   0.026262   0.000002   0.000124  -0.003123
     3  N    0.393022   0.004234   0.013788  -0.001249   0.003590  -0.088317
     4  H   -0.037071  -0.000857   0.000090   0.000023   0.000036   0.014475
     5  C    0.465653  -0.342635  -0.707612  -0.116133  -0.058014   0.192443
     6  C   -0.127105   0.033315  -0.045608   0.028701  -0.019745  -0.081331
     7  C    5.411430  -0.235137  -0.218208   0.016040  -0.006436   0.026335
     8  C   -0.235137   5.409699   0.202958  -0.009599  -0.001393  -0.051275
     9  C   -0.218208   0.202958   6.426122   0.538218   0.419884  -0.134301
    10  H    0.016040  -0.009599   0.538218   0.533656  -0.049004  -0.110018
    11  H   -0.006436  -0.001393   0.419884  -0.049004   0.579743  -0.013709
    12  C    0.026335  -0.051275  -0.134301  -0.110018  -0.013709   7.373825
    13  C    0.019051  -0.009283  -0.239562  -0.000995  -0.007218  -0.489908
    14  C    0.289567  -0.031408   0.005903   0.000477  -0.000858  -0.000272
    15  H   -0.085839   0.005410   0.000759  -0.000004   0.000044  -0.001613
    16  H   -0.023980  -0.006810  -0.000365  -0.000054   0.000178   0.000179
    17  H   -0.019249  -0.001675   0.000922   0.000060  -0.000061   0.000362
    18  C   -0.001320   0.326308   0.000482   0.007345  -0.013357  -0.001040
    19  H    0.000256  -0.052962  -0.002045   0.000592   0.000105  -0.000159
    20  H    0.003895  -0.071564  -0.008460  -0.007374   0.003023   0.007309
    21  H   -0.000343  -0.024251  -0.009540  -0.000687   0.000728  -0.002577
    22  C    0.000144  -0.000069   0.009786  -0.001080   0.003203  -0.251760
    23  H   -0.000007   0.000002  -0.002205  -0.000128   0.000178  -0.011259
    24  H   -0.000018   0.000007   0.002820   0.000084  -0.000216   0.065949
    25  H    0.000010   0.000002   0.000208  -0.000039  -0.000096   0.019826
    26  C    0.002679   0.000810   0.021930   0.000152  -0.000726  -0.085322
    27  H   -0.000821  -0.000014  -0.000448   0.000040  -0.000010  -0.017783
    28  H   -0.000742   0.000001  -0.000134   0.000013  -0.000105  -0.007571
    29  H    0.003107  -0.000003  -0.000535  -0.000015   0.000088   0.023223
              13         14         15         16         17         18
     1  O    0.715056  -0.000008  -0.000000   0.000000  -0.000000   0.000258
     2  O   -0.000016  -0.005418   0.004180   0.002188   0.003210  -0.101069
     3  N    0.001640  -0.033040   0.004559  -0.000261  -0.002142  -0.000497
     4  H    0.000556  -0.010406   0.002185   0.000796   0.000916   0.000021
     5  C    0.083655  -0.086766   0.021442  -0.005995  -0.008873  -0.253805
     6  C    0.125836   0.010938   0.006412  -0.001241  -0.001373   0.000049
     7  C    0.019051   0.289567  -0.085839  -0.023980  -0.019249  -0.001320
     8  C   -0.009283  -0.031408   0.005410  -0.006810  -0.001675   0.326308
     9  C   -0.239562   0.005903   0.000759  -0.000365   0.000922   0.000482
    10  H   -0.000995   0.000477  -0.000004  -0.000054   0.000060   0.007345
    11  H   -0.007218  -0.000858   0.000044   0.000178  -0.000061  -0.013357
    12  C   -0.489908  -0.000272  -0.001613   0.000179   0.000362  -0.001040
    13  C    5.566284   0.000115  -0.000041  -0.000005  -0.000008   0.001337
    14  C    0.000115   5.029339   0.390518   0.415754   0.407912   0.001167
    15  H   -0.000041   0.390518   0.581342  -0.027584  -0.025920   0.000235
    16  H   -0.000005   0.415754  -0.027584   0.508340  -0.025841  -0.000178
    17  H   -0.000008   0.407912  -0.025920  -0.025841   0.505399   0.000090
    18  C    0.001337   0.001167   0.000235  -0.000178   0.000090   5.314763
    19  H   -0.000012   0.000034  -0.000004   0.000038  -0.000035   0.396375
    20  H    0.000882   0.000089  -0.000015  -0.000030   0.000000   0.379682
    21  H   -0.000150  -0.000209  -0.000005   0.000012  -0.000008   0.400126
    22  C    0.280247  -0.000011   0.000002  -0.000000   0.000000   0.000035
    23  H   -0.021891  -0.000001   0.000000  -0.000000   0.000000  -0.000002
    24  H   -0.099359   0.000003   0.000000  -0.000000   0.000000   0.000001
    25  H   -0.035035   0.000000   0.000000   0.000000  -0.000000  -0.000001
    26  C   -0.054004   0.000620   0.000266   0.000019  -0.000083   0.000009
    27  H    0.006726  -0.000101  -0.000004   0.000004  -0.000005  -0.000000
    28  H   -0.002365   0.000057  -0.000008  -0.000002   0.000001  -0.000000
    29  H   -0.001291  -0.000143   0.000100  -0.000002  -0.000000  -0.000000
              19         20         21         22         23         24
     1  O   -0.000001   0.000156  -0.000004  -0.105776   0.001387   0.005040
     2  O    0.007641   0.004213   0.000755   0.000000   0.000000  -0.000000
     3  N    0.000006   0.000113   0.000012  -0.000199   0.000017   0.000165
     4  H   -0.000001   0.000001  -0.000001   0.000119  -0.000012  -0.000056
     5  C    0.024033   0.045521   0.002400   0.004101  -0.000021  -0.000729
     6  C    0.000017  -0.001247   0.000199  -0.023519   0.008885  -0.026397
     7  C    0.000256   0.003895  -0.000343   0.000144  -0.000007  -0.000018
     8  C   -0.052962  -0.071564  -0.024251  -0.000069   0.000002   0.000007
     9  C   -0.002045  -0.008460  -0.009540   0.009786  -0.002205   0.002820
    10  H    0.000592  -0.007374  -0.000687  -0.001080  -0.000128   0.000084
    11  H    0.000105   0.003023   0.000728   0.003203   0.000178  -0.000216
    12  C   -0.000159   0.007309  -0.002577  -0.251760  -0.011259   0.065949
    13  C   -0.000012   0.000882  -0.000150   0.280247  -0.021891  -0.099359
    14  C    0.000034   0.000089  -0.000209  -0.000011  -0.000001   0.000003
    15  H   -0.000004  -0.000015  -0.000005   0.000002   0.000000   0.000000
    16  H    0.000038  -0.000030   0.000012  -0.000000  -0.000000  -0.000000
    17  H   -0.000035   0.000000  -0.000008   0.000000   0.000000   0.000000
    18  C    0.396375   0.379682   0.400126   0.000035  -0.000002   0.000001
    19  H    0.507734  -0.024919  -0.009928  -0.000000   0.000000   0.000000
    20  H   -0.024919   0.540616  -0.023620   0.000032  -0.000000  -0.000001
    21  H   -0.009928  -0.023620   0.492587  -0.000012   0.000000   0.000000
    22  C   -0.000000   0.000032  -0.000012   5.429730   0.400351   0.396542
    23  H    0.000000  -0.000000   0.000000   0.400351   0.495280  -0.027878
    24  H    0.000000  -0.000001   0.000000   0.396542  -0.027878   0.548779
    25  H   -0.000000  -0.000000   0.000000   0.382486  -0.007926  -0.022426
    26  C    0.000000  -0.000017   0.000003  -0.032588  -0.010648   0.016566
    27  H    0.000000   0.000000  -0.000000  -0.010802   0.000896  -0.001807
    28  H   -0.000000  -0.000000   0.000000   0.004432   0.000069  -0.007460
    29  H    0.000000   0.000000  -0.000000   0.002071   0.000172   0.000604
              25         26         27         28         29
     1  O    0.006654   0.000791  -0.000053  -0.000233   0.000023
     2  O    0.000000   0.000010  -0.000000  -0.000000   0.000000
     3  N    0.000022  -0.025909  -0.002460   0.001220   0.001909
     4  H   -0.000003  -0.006523   0.000492   0.000738   0.001986
     5  C   -0.000142   0.000588   0.000375   0.000050  -0.000339
     6  C   -0.000822   0.192790  -0.032832  -0.047590  -0.049175
     7  C    0.000010   0.002679  -0.000821  -0.000742   0.003107
     8  C    0.000002   0.000810  -0.000014   0.000001  -0.000003
     9  C    0.000208   0.021930  -0.000448  -0.000134  -0.000535
    10  H   -0.000039   0.000152   0.000040   0.000013  -0.000015
    11  H   -0.000096  -0.000726  -0.000010  -0.000105   0.000088
    12  C    0.019826  -0.085322  -0.017783  -0.007571   0.023223
    13  C   -0.035035  -0.054004   0.006726  -0.002365  -0.001291
    14  C    0.000000   0.000620  -0.000101   0.000057  -0.000143
    15  H    0.000000   0.000266  -0.000004  -0.000008   0.000100
    16  H    0.000000   0.000019   0.000004  -0.000002  -0.000002
    17  H   -0.000000  -0.000083  -0.000005   0.000001  -0.000000
    18  C   -0.000001   0.000009  -0.000000  -0.000000  -0.000000
    19  H   -0.000000   0.000000   0.000000  -0.000000   0.000000
    20  H   -0.000000  -0.000017   0.000000  -0.000000   0.000000
    21  H    0.000000   0.000003  -0.000000   0.000000  -0.000000
    22  C    0.382486  -0.032588  -0.010802   0.004432   0.002071
    23  H   -0.007926  -0.010648   0.000896   0.000069   0.000172
    24  H   -0.022426   0.016566  -0.001807  -0.007460   0.000604
    25  H    0.493067   0.001912   0.000123   0.000591  -0.000036
    26  C    0.001912   5.238266   0.426828   0.431746   0.387918
    27  H    0.000123   0.426828   0.480852  -0.027659  -0.017148
    28  H    0.000591   0.431746  -0.027659   0.505206  -0.024925
    29  H   -0.000036   0.387918  -0.017148  -0.024925   0.518760
 Mulliken charges:
               1
     1  O   -0.363101
     2  O   -0.379371
     3  N   -0.218018
     4  H    0.280281
     5  C   -0.059030
     6  C    0.268648
     7  C    0.173396
     8  C    0.153621
     9  C   -0.296808
    10  H    0.161880
    11  H    0.152511
    12  C   -0.141721
    13  C    0.159758
    14  C   -0.383854
    15  H    0.123582
    16  H    0.164841
    17  H    0.166401
    18  C   -0.457014
    19  H    0.153233
    20  H    0.151714
    21  H    0.174512
    22  C   -0.487465
    23  H    0.174742
    24  H    0.149786
    25  H    0.161625
    26  C   -0.508081
    27  H    0.195613
    28  H    0.174668
    29  H    0.153652
 Sum of Mulliken charges =  -0.00000
 Mulliken charges with hydrogens summed into heavy atoms:
               1
     1  O   -0.363101
     2  O   -0.379371
     3  N    0.062263
     5  C   -0.059030
     6  C    0.268648
     7  C    0.173396
     8  C    0.153621
     9  C    0.017582
    12  C   -0.141721
    13  C    0.159758
    14  C    0.070970
    18  C    0.022445
    22  C   -0.001311
    26  C    0.015851
 Electronic spatial extent (au):  <R**2>=           3203.6069
 Charge=              0.0000 electrons
 Dipole moment (field-independent basis, Debye):
    X=              4.0272    Y=              7.5191    Z=              0.1424  Tot=              8.5309
 Quadrupole moment (field-independent basis, Debye-Ang):
   XX=            -98.1863   YY=            -78.1851   ZZ=            -84.9124
   XY=             12.2256   XZ=              4.0298   YZ=             -2.2422
 Traceless Quadrupole moment (field-independent basis, Debye-Ang):
   XX=            -11.0917   YY=              8.9095   ZZ=              2.1822
   XY=             12.2256   XZ=              4.0298   YZ=             -2.2422
 Octapole moment (field-independent basis, Debye-Ang**2):
  XXX=            110.4701  YYY=             64.2448  ZZZ=              1.2824  XYY=            -34.6275
  XXY=             31.8949  XXZ=             -4.8620  XZZ=              0.5711  YZZ=             -1.2685
  YYZ=              4.6533  XYZ=             -5.1953
 Hexadecapole moment (field-independent basis, Debye-Ang**3):
 XXXX=          -3064.2145 YYYY=          -1292.6972 ZZZZ=           -143.1262 XXXY=             31.9339
 XXXZ=             43.9370 YYYX=             87.3636 YYYZ=            -19.6720 ZZZX=             -3.7005
 ZZZY=              2.3100 XXYY=           -690.7292 XXZZ=           -479.6605 YYZZ=           -245.0537
 XXYZ=            -10.0746 YYXZ=              9.5717 ZZXY=             -0.1468
 N-N= 8.994347622185D+02 E-N=-3.274839631183D+03  KE= 6.306625787098D+02
 Leave Link  601 at Fri Jan 23 15:30:43 2026, MaxMem=  2147483648 cpu:               0.7 elap:               0.1
 (Enter /data/home/wyx/g16/l9999.exe)
 Electronic transition elements 
                 1             2             3             4             5 
      1  -0.633212D+03 -0.633177D+03 -0.633171D+03 -0.633143D+03 -0.633126D+03
      2   0.158898D+01 -0.103905D-01 -0.901117D-01 -0.386069D+00  0.447467D+00
      3   0.374500D+00 -0.443099D-01  0.810993D-01  0.168719D+01 -0.147624D+01
      4   0.125742D+00  0.359556D-01 -0.360207D-01 -0.119826D+00  0.663503D-01
      5  -0.166343D+00  0.788401D-03  0.126448D-01  0.605563D-01 -0.848788D-01
      6  -0.426950D-01  0.665100D-02 -0.104172D-01 -0.290725D+00  0.283103D+00
      7  -0.126125D-01 -0.210227D-02  0.190777D-02  0.172494D-01 -0.137060D-01
      8  -0.124292D+00  0.788602D+00  0.524557D+00 -0.377225D-01  0.111468D+00
      9  -0.284248D-01  0.155578D+00 -0.852762D+00  0.540476D-01 -0.530869D-01
     10   0.147135D+01 -0.293254D-01 -0.151219D+00 -0.739736D-01  0.295342D+00
     11  -0.163518D+00  0.314054D-01  0.736438D-02  0.118721D+01 -0.528201D+00
     12   0.247790D+00 -0.127151D-01 -0.397947D-01 -0.144186D+00  0.349188D+00
     13  -0.135784D-01 -0.137381D-01  0.311887D-01 -0.164625D-01  0.397739D-01
     14   0.459666D+00 -0.105393D-01 -0.626200D-01  0.446754D+00 -0.597314D-01
     15  -0.460668D-01 -0.133096D-01  0.554328D-01  0.511684D-01 -0.743843D-02
     16   0.214943D-01  0.754631D-01  0.245306D-01  0.550915D-01  0.172680D-01
                 6 
      1  -0.633110D+03
      2   0.591772D-01
      3  -0.207866D+00
      4  -0.366539D-01
      5  -0.129620D-01
      6   0.426040D-01
      7   0.280032D-01
      8  -0.434776D-01
      9  -0.219064D-02
     10  -0.400664D-01
     11   0.141222D+00
     12   0.136264D+00
     13  -0.117495D+00
     14  -0.297258D-02
     15   0.407816D-01
     16  -0.118443D+00
 1\1\GINC-CN012\SP\RCAM-B3LYP TD-FC\TZVP\C11H15N1O2\WYX\23-Jan-2026\0\\
 #p CAM-B3LYP TZVP em=gd3bj td(Eqsolv,nstates=6,root=1) scrf=(Solvent=T
 etraHydroFuran) Geom=Check Guess=Read\\Title Card Required\\0,1\O,0,2.
 839421,-1.57264,0.048152\O,0,-3.428654,-1.646247,-0.121592\N,0,-0.6622
 01,1.517198,-0.202023\H,0,-0.973828,2.477465,-0.251968\C,0,-1.247513,-
 0.762104,-0.203101\C,0,0.680986,1.331579,-0.031141\C,0,-1.636011,0.575
 649,-0.243178\C,0,-2.213017,-1.844705,-0.175252\C,0,0.196604,-1.085194
 ,-0.204921\H,0,0.412075,-1.894741,0.500373\H,0,0.470926,-1.553803,-1.1
 67351\C,0,1.147796,0.025634,0.036418\C,0,2.517546,-0.401163,0.275026\C
 ,0,-3.024467,1.103643,-0.344409\H,0,-3.022323,2.186079,-0.465058\H,0,-
 3.552581,0.662731,-1.184804\H,0,-3.604974,0.858342,0.541022\C,0,-1.711
 074,-3.265541,-0.185786\H,0,-2.523113,-3.926939,-0.468945\H,0,-0.87589
 1,-3.422496,-0.862191\H,0,-1.376159,-3.556394,0.809912\C,0,3.563273,0.
 529112,0.840553\H,0,4.069925,1.069899,0.038479\H,0,3.157905,1.257314,1
 .538206\H,0,4.306638,-0.081406,1.348611\C,0,1.469123,2.597785,0.02607\
 H,0,1.698388,2.895827,1.049694\H,0,2.408054,2.509173,-0.51047\H,0,0.91
 3146,3.415943,-0.430325\\Version=ES64L-G16RevA.03\State=1-A\HF=-633.32
 19628\RMSD=3.379e-09\PG=C01 [X(C11H15N1O2)]\\@


 THE ATTENTION SPAN OF A COMPUTER IS AS LONG
 AS ITS EXTENSION CORD.
 Job cpu time:       0 days  0 hours 35 minutes 42.2 seconds.
 Elapsed time:       0 days  0 hours  2 minutes 14.7 seconds.
 File lengths (MBytes):  RWF=    734 Int=      0 D2E=      0 Chk=     67 Scr=      1
 Normal termination of Gaussian 16 at Fri Jan 23 15:30:46 2026.
