 Entering Gaussian System, Link 0=g16
 Input=DDL-S1-cLR-0.gjf
 Output=DDL-S1-cLR-0.log
 Initial command:
 /data/home/wyx/g16/l1.exe "/scr/tmp/wyx/13106/Gau-1969790.inp" -scrdir="/scr/tmp/wyx/13106/"
 Entering Link 1 = /data/home/wyx/g16/l1.exe PID=   1969791.
  
 Copyright (c) 1988,1990,1992,1993,1995,1998,2003,2009,2016,
            Gaussian, Inc.  All Rights Reserved.
  
 This is part of the Gaussian(R) 16 program.  It is based on
 the Gaussian(R) 09 system (copyright 2009, Gaussian, Inc.),
 the Gaussian(R) 03 system (copyright 2003, Gaussian, Inc.),
 the Gaussian(R) 98 system (copyright 1998, Gaussian, Inc.),
 the Gaussian(R) 94 system (copyright 1995, Gaussian, Inc.),
 the Gaussian 92(TM) system (copyright 1992, Gaussian, Inc.),
 the Gaussian 90(TM) system (copyright 1990, Gaussian, Inc.),
 the Gaussian 88(TM) system (copyright 1988, Gaussian, Inc.),
 the Gaussian 86(TM) system (copyright 1986, Carnegie Mellon
 University), and the Gaussian 82(TM) system (copyright 1983,
 Carnegie Mellon University). Gaussian is a federally registered
 trademark of Gaussian, Inc.
  
 This software contains proprietary and confidential information,
 including trade secrets, belonging to Gaussian, Inc.
  
 This software is provided under written license and may be
 used, copied, transmitted, or stored only in accord with that
 written license.
  
 The following legend is applicable only to US Government
 contracts under FAR:
  
                    RESTRICTED RIGHTS LEGEND
  
 Use, reproduction and disclosure by the US Government is
 subject to restrictions as set forth in subparagraphs (a)
 and (c) of the Commercial Computer Software - Restricted
 Rights clause in FAR 52.227-19.
  
 Gaussian, Inc.
 340 Quinnipiac St., Bldg. 40, Wallingford CT 06492
  
  
 ---------------------------------------------------------------
 Warning -- This program may not be used in any manner that
 competes with the business of Gaussian, Inc. or will provide
 assistance to any competitor of Gaussian, Inc.  The licensee
 of this program is prohibited from giving any competitor of
 Gaussian, Inc. access to this program.  By using this program,
 the user acknowledges that Gaussian, Inc. is engaged in the
 business of creating and licensing software in the field of
 computational chemistry and represents and warrants to the
 licensee that it is not a competitor of Gaussian, Inc. and that
 it will not use this program in any manner prohibited above.
 ---------------------------------------------------------------
  

 Cite this work as:
 Gaussian 16, Revision A.03,
 M. J. Frisch, G. W. Trucks, H. B. Schlegel, G. E. Scuseria, 
 M. A. Robb, J. R. Cheeseman, G. Scalmani, V. Barone, 
 G. A. Petersson, H. Nakatsuji, X. Li, M. Caricato, A. V. Marenich, 
 J. Bloino, B. G. Janesko, R. Gomperts, B. Mennucci, H. P. Hratchian, 
 J. V. Ortiz, A. F. Izmaylov, J. L. Sonnenberg, D. Williams-Young, 
 F. Ding, F. Lipparini, F. Egidi, J. Goings, B. Peng, A. Petrone, 
 T. Henderson, D. Ranasinghe, V. G. Zakrzewski, J. Gao, N. Rega, 
 G. Zheng, W. Liang, M. Hada, M. Ehara, K. Toyota, R. Fukuda, 
 J. Hasegawa, M. Ishida, T. Nakajima, Y. Honda, O. Kitao, H. Nakai, 
 T. Vreven, K. Throssell, J. A. Montgomery, Jr., J. E. Peralta, 
 F. Ogliaro, M. J. Bearpark, J. J. Heyd, E. N. Brothers, K. N. Kudin, 
 V. N. Staroverov, T. A. Keith, R. Kobayashi, J. Normand, 
 K. Raghavachari, A. P. Rendell, J. C. Burant, S. S. Iyengar, 
 J. Tomasi, M. Cossi, J. M. Millam, M. Klene, C. Adamo, R. Cammi, 
 J. W. Ochterski, R. L. Martin, K. Morokuma, O. Farkas, 
 J. B. Foresman, and D. J. Fox, Gaussian, Inc., Wallingford CT, 2016.
 
 ******************************************
 Gaussian 16:  ES64L-G16RevA.03 25-Dec-2016
                23-Jan-2026 
 ******************************************
 %nprocshared=16
 Will use up to   16 processors via shared memory.
 %mem=16GB
 %oldchk=DDL-LR-0.chk
 %chk=DDL-S1-cLR-0.chk
 Copying data from "DDL-LR-0.chk" to current chk file "DDL-S1-cLR-0.chk"
 IOpt=  2 FromEx=T IUOpen= 4 IOptOp= 5 NList=   0 IFRang= 0 IUIn= 4 IUOut= 2.
 ----------------------------------------------------------------------
 #p CAM-B3LYP TZVP em=gd3bj td(nstates=6,root=1) scrf=(Solvent=TetraHyd
 roFuran,CorrectedLR,NonEquilibrium=Save) Geom=Check Guess=Read
 ----------------------------------------------------------------------
 1/29=2,30=1,38=1,172=1/1;
 2/12=2,40=1/2;
 3/5=19,7=101,11=9,14=-4,25=1,30=1,70=9002201,71=1,72=20,74=-40,116=-2,124=41/1,2,3,8;
 4/5=1/1;
 5/5=2,38=6,53=20/2;
 8/6=1,10=1,107=1,108=6/1;
 9/8=1,15=1,41=6,42=1,70=2,73=22/14;
 10/5=4,13=10,28=1,74=20/2;
 6/7=2,8=2,9=2,10=2,22=-1/1;
 99/5=1,9=1/99;
 Leave Link    1 at Fri Jan 23 16:47:40 2026, MaxMem=  2147483648 cpu:               0.9 elap:               0.1
 (Enter /data/home/wyx/g16/l101.exe)
 -------------------
 Title Card Required
 -------------------
 Structure from the checkpoint file:  "DDL-S1-cLR-0.chk"
 Charge =  0 Multiplicity = 1
 Z-Matrix found in chk file.
 O,0,2.840355,-1.575566,0.006876
 O,0,-3.430456,-1.65648,-0.200573
 N,0,-0.673261,1.51926,-0.136562
 H,0,-0.985797,2.480907,-0.184817
 C,0,-1.251081,-0.76442,-0.195008
 C,0,0.673027,1.344959,-0.001164
 C,0,-1.646543,0.587748,-0.223477
 C,0,-2.208444,-1.851824,-0.20537
 C,0,0.187435,-1.075242,-0.146137
 H,0,0.389393,-1.869159,0.584973
 H,0,0.483471,-1.587317,-1.083615
 C,0,1.146336,0.026389,0.056495
 C,0,2.518909,-0.404196,0.25469
 C,0,-3.037078,1.109507,-0.363395
 H,0,-3.030155,2.198859,-0.420899
 H,0,-3.51566,0.716076,-1.258921
 H,0,-3.660503,0.807978,0.476504
 C,0,-1.700512,-3.276547,-0.182859
 H,0,-2.493575,-3.925694,-0.546499
 H,0,-0.806587,-3.431445,-0.784002
 H,0,-1.464503,-3.572706,0.842713
 C,0,3.575614,0.523342,0.805827
 H,0,4.079,1.058186,-0.002651
 H,0,3.181872,1.256761,1.504771
 H,0,4.320435,-0.088933,1.310142
 C,0,1.471434,2.607239,0.023709
 H,0,1.768788,2.895985,1.034213
 H,0,2.376132,2.51428,-0.572765
 H,0,0.89194,3.43205,-0.392194
 Recover connectivity data from disk.
 ITRead=  0  0  0  0  0  0  0  0  0  0  0  0  0  0  0  0  0  0  0  0
 ITRead=  0  0  0  0  0  0  0  0  0
 MicOpt= -1 -1 -1 -1 -1 -1 -1 -1 -1 -1 -1 -1 -1 -1 -1 -1 -1 -1 -1 -1
 MicOpt= -1 -1 -1 -1 -1 -1 -1 -1 -1
 NAtoms=     29 NQM=       29 NQMF=       0 NMMI=      0 NMMIF=      0
                NMic=       0 NMicF=      0.
                    Isotopes and Nuclear Properties:
 (Nuclear quadrupole moments (NQMom) in fm**2, nuclear magnetic moments (NMagM)
  in nuclear magnetons)

  Atom         1           2           3           4           5           6           7           8           9          10
 IAtWgt=          16          16          14           1          12          12          12          12          12           1
 AtmWgt=  15.9949146  15.9949146  14.0030740   1.0078250  12.0000000  12.0000000  12.0000000  12.0000000  12.0000000   1.0078250
 NucSpn=           0           0           2           1           0           0           0           0           0           1
 AtZEff=   5.6000000   5.6000000   4.5500000   1.0000000   3.6000000   3.6000000   3.6000000   3.6000000   3.6000000   1.0000000
 NQMom=    0.0000000   0.0000000   2.0440000   0.0000000   0.0000000   0.0000000   0.0000000   0.0000000   0.0000000   0.0000000
 NMagM=    0.0000000   0.0000000   0.4037610   2.7928460   0.0000000   0.0000000   0.0000000   0.0000000   0.0000000   2.7928460
 AtZNuc=   8.0000000   8.0000000   7.0000000   1.0000000   6.0000000   6.0000000   6.0000000   6.0000000   6.0000000   1.0000000

  Atom        11          12          13          14          15          16          17          18          19          20
 IAtWgt=           1          12          12          12           1           1           1          12           1           1
 AtmWgt=   1.0078250  12.0000000  12.0000000  12.0000000   1.0078250   1.0078250   1.0078250  12.0000000   1.0078250   1.0078250
 NucSpn=           1           0           0           0           1           1           1           0           1           1
 AtZEff=   1.0000000   3.6000000   3.6000000   3.6000000   1.0000000   1.0000000   1.0000000   3.6000000   1.0000000   1.0000000
 NQMom=    0.0000000   0.0000000   0.0000000   0.0000000   0.0000000   0.0000000   0.0000000   0.0000000   0.0000000   0.0000000
 NMagM=    2.7928460   0.0000000   0.0000000   0.0000000   2.7928460   2.7928460   2.7928460   0.0000000   2.7928460   2.7928460
 AtZNuc=   1.0000000   6.0000000   6.0000000   6.0000000   1.0000000   1.0000000   1.0000000   6.0000000   1.0000000   1.0000000

  Atom        21          22          23          24          25          26          27          28          29
 IAtWgt=           1          12           1           1           1          12           1           1           1
 AtmWgt=   1.0078250  12.0000000   1.0078250   1.0078250   1.0078250  12.0000000   1.0078250   1.0078250   1.0078250
 NucSpn=           1           0           1           1           1           0           1           1           1
 AtZEff=   1.0000000   3.6000000   1.0000000   1.0000000   1.0000000   3.6000000   1.0000000   1.0000000   1.0000000
 NQMom=    0.0000000   0.0000000   0.0000000   0.0000000   0.0000000   0.0000000   0.0000000   0.0000000   0.0000000
 NMagM=    2.7928460   0.0000000   2.7928460   2.7928460   2.7928460   0.0000000   2.7928460   2.7928460   2.7928460
 AtZNuc=   1.0000000   6.0000000   1.0000000   1.0000000   1.0000000   6.0000000   1.0000000   1.0000000   1.0000000
 Leave Link  101 at Fri Jan 23 16:47:42 2026, MaxMem=  2147483648 cpu:               0.9 elap:               0.1
 (Enter /data/home/wyx/g16/l202.exe)
                          Input orientation:                          
 ---------------------------------------------------------------------
 Center     Atomic      Atomic             Coordinates (Angstroms)
 Number     Number       Type             X           Y           Z
 ---------------------------------------------------------------------
      1          8           0        2.840355   -1.575566    0.006876
      2          8           0       -3.430456   -1.656480   -0.200573
      3          7           0       -0.673261    1.519260   -0.136562
      4          1           0       -0.985797    2.480907   -0.184817
      5          6           0       -1.251081   -0.764420   -0.195008
      6          6           0        0.673027    1.344959   -0.001164
      7          6           0       -1.646543    0.587748   -0.223477
      8          6           0       -2.208444   -1.851824   -0.205370
      9          6           0        0.187435   -1.075242   -0.146137
     10          1           0        0.389393   -1.869159    0.584973
     11          1           0        0.483471   -1.587317   -1.083615
     12          6           0        1.146336    0.026389    0.056495
     13          6           0        2.518909   -0.404196    0.254690
     14          6           0       -3.037078    1.109507   -0.363395
     15          1           0       -3.030155    2.198859   -0.420899
     16          1           0       -3.515660    0.716076   -1.258921
     17          1           0       -3.660503    0.807978    0.476504
     18          6           0       -1.700512   -3.276547   -0.182859
     19          1           0       -2.493575   -3.925694   -0.546499
     20          1           0       -0.806587   -3.431445   -0.784002
     21          1           0       -1.464503   -3.572706    0.842713
     22          6           0        3.575614    0.523342    0.805827
     23          1           0        4.079000    1.058186   -0.002651
     24          1           0        3.181872    1.256761    1.504771
     25          1           0        4.320435   -0.088933    1.310142
     26          6           0        1.471434    2.607239    0.023709
     27          1           0        1.768788    2.895985    1.034213
     28          1           0        2.376132    2.514280   -0.572765
     29          1           0        0.891940    3.432050   -0.392194
 ---------------------------------------------------------------------
                    Distance matrix (angstroms):
                    1          2          3          4          5
     1  O    0.000000
     2  O    6.274763   0.000000
     3  N    4.684444   4.206132   0.000000
     4  H    5.579530   4.805682   1.012310   0.000000
     5  C    4.175951   2.354884   2.356371   3.256168   0.000000
     6  C    3.636872   5.087924   1.364260   2.018862   2.861686
     7  C    4.986506   2.866955   1.350017   2.005525   1.409099
     8  C    5.060804   1.237536   3.704825   4.501982   1.448827
     9  C    2.704020   3.664688   2.733556   3.744885   1.472524
    10  H    2.535273   3.905581   3.623704   4.626748   2.126023
    11  H    2.596962   4.012901   3.447573   4.417809   2.115527
    12  C    2.332043   4.883150   2.361539   3.260197   2.536975
    13  C    1.239696   6.096755   3.747360   4.560696   3.813766
    14  C    6.472321   2.798561   2.409768   2.473941   2.594175
    15  H    6.992293   3.882322   2.469342   2.077182   3.463691
    16  H    6.874067   2.599304   3.159751   3.266272   2.907249
    17  H    6.939956   2.566108   3.131355   3.223366   2.954434
    18  C    4.852711   2.370156   4.904809   5.801646   2.552042
    19  H    5.854924   2.479263   5.755790   6.591566   3.414819
    20  H    4.167728   3.221115   4.994641   5.945338   2.767221
    21  H    4.818609   2.936893   5.245299   6.158832   3.001480
    22  C    2.363122   7.406044   4.464626   5.061611   5.094800
    23  H    2.910495   7.987522   4.776453   5.263980   5.636369
    24  H    3.222173   7.424153   4.198206   4.660762   5.159990
    25  H    2.469659   8.050824   5.442080   6.082358   5.810641
    26  C    4.401146   6.500625   2.410208   2.469297   4.339125
    27  H    4.711523   7.020098   3.038040   3.040734   4.901954
    28  H    4.156721   7.158927   3.237149   3.384403   4.904003
    29  H    5.388116   6.679294   2.484747   2.115083   4.716119
                    6          7          8          9         10
     6  C    0.000000
     7  C    2.450142   0.000000
     8  C    4.308596   2.503512   0.000000
     9  C    2.472689   2.476892   2.519290   0.000000
    10  H    3.279414   3.291659   2.715456   1.098004   0.000000
    11  H    3.131433   3.163496   2.843885   1.108478   1.694837
    12  C    1.402132   2.862461   3.853674   1.474497   2.108401
    13  C    2.555833   4.308548   4.965395   2.459011   2.605771
    14  C    3.735174   1.491776   3.079137   3.901002   4.638163
    15  H    3.823464   2.132847   4.138804   4.598708   5.408684
    16  H    4.418432   2.140610   3.068044   4.261458   5.033172
    17  H    4.392721   2.143481   3.106119   4.329068   4.855974
    18  C    5.198559   3.864885   1.512725   2.900248   2.634010
    19  H    6.172888   4.603582   2.120992   3.933596   3.717670
    20  H    5.061238   4.144107   2.189799   2.635649   2.396914
    21  H    5.428130   4.298753   2.147874   3.153419   2.530896
    22  C    3.122707   5.323020   6.333977   3.865419   3.990594
    23  H    3.418025   5.749080   6.931176   4.440313   4.746351
    24  H    2.927443   5.171848   6.453169   4.138887   4.291310
    25  H    4.132693   6.197960   6.930427   4.491686   4.375862
    26  C    1.493795   3.723067   5.785950   3.903610   4.639393
    27  H    2.162956   4.309783   6.316378   4.434473   4.981079
    28  H    2.143503   4.473862   6.341623   4.225763   4.949952
    29  H    2.134661   3.816073   6.129161   4.568649   5.413892
                   11         12         13         14         15
    11  H    0.000000
    12  C    2.084056   0.000000
    13  C    2.708107   1.452116   0.000000
    14  C    4.492866   4.341705   5.791573   0.000000
    15  H    5.207676   4.731872   6.166395   1.090891   0.000000
    16  H    4.618376   4.892872   6.321554   1.088942   1.771057
    17  H    5.034276   4.888046   6.301087   1.088581   1.771220
    18  C    2.904245   4.367061   5.123023   4.588733   5.639564
    19  H    3.823520   5.406618   6.178013   5.067758   6.149296
    20  H    2.270424   4.059182   4.615413   5.076637   6.064357
    21  H    3.383358   4.515319   5.123748   5.084369   6.112196
    22  C    4.193593   2.590338   1.510200   6.740799   6.924478
    23  H    4.592929   3.109441   2.153757   7.125401   7.212222
    24  H    4.697860   2.784731   2.181972   6.495157   6.571532
    25  H    4.764191   3.414650   2.111603   7.640025   7.890606
    26  C    4.449330   2.601452   3.196763   4.766522   4.541889
    27  H    5.122229   3.094828   3.472972   5.314241   5.062923
    28  H    4.546013   2.845693   3.036868   5.596433   5.417610
    29  H    5.083203   3.444498   4.216903   4.564232   4.111498
                   16         17         18         19         20
    16  H    0.000000
    17  H    1.743882   0.000000
    18  C    4.515940   4.578173   0.000000
    19  H    4.806062   4.981557   1.087463   0.000000
    20  H    4.976601   5.263689   1.088333   1.773871   0.000000
    21  H    5.197861   4.913951   1.093256   1.764511   1.760400
    22  C    7.388268   7.249197   6.576790   7.645768   6.113230
    23  H    7.705460   7.758357   7.226697   8.266412   6.681037
    24  H    7.265485   6.933746   6.872892   7.954637   6.567006
    25  H    8.285681   8.074328   6.974363   8.037324   6.468708
    26  C    5.485685   5.457027   6.687514   7.663266   6.504420
    27  H    6.159209   5.843630   7.184529   8.197664   7.069288
    28  H    6.198190   6.360298   7.092583   8.073909   6.747293
    29  H    5.249254   5.325892   7.195130   8.100736   7.081389
                   21         22         23         24         25
    21  H    0.000000
    22  C    6.494748   0.000000
    23  H    7.272567   1.092288   0.000000
    24  H    6.734306   1.086949   1.765387   0.000000
    25  H    6.769097   1.088105   1.760000   1.773443   0.000000
    26  C    6.890734   3.062990   3.033094   2.634945   4.128082
    27  H    7.234280   2.991022   3.128845   2.214788   3.936594
    28  H    7.335220   2.702426   2.311925   2.558657   3.755312
    29  H    7.492958   4.134966   3.993035   3.684311   5.200947
                   26         27         28         29
    26  C    0.000000
    27  H    1.092205   0.000000
    28  H    1.087613   1.759814   0.000000
    29  H    1.090459   1.758086   1.754347   0.000000
 Stoichiometry    C11H15NO2
 Framework group  C1[X(C11H15NO2)]
 Deg. of freedom    81
 Full point group                 C1      NOp   1
 RotChk:  IX=0 Diff= 2.05D-16
 Largest Abelian subgroup         C1      NOp   1
 Largest concise Abelian subgroup C1      NOp   1
                         Standard orientation:                         
 ---------------------------------------------------------------------
 Center     Atomic      Atomic             Coordinates (Angstroms)
 Number     Number       Type             X           Y           Z
 ---------------------------------------------------------------------
      1          8           0        2.281703   -2.288047   -0.293853
      2          8           0       -3.637297   -0.264108    0.197842
      3          7           0        0.017309    1.804723   -0.037396
      4          1           0        0.042781    2.816656   -0.048113
      5          6           0       -1.296873   -0.151142   -0.036964
      6          6           0        1.233124    1.186055   -0.053150
      7          6           0       -1.215778    1.255490   -0.017795
      8          6           0       -2.559469   -0.855562    0.056545
      9          6           0       -0.049584   -0.925721   -0.149322
     10          1           0       -0.051205   -1.769948    0.552741
     11          1           0       -0.041986   -1.469498   -1.115227
     12          6           0        1.239227   -0.216063   -0.051892
     13          6           0        2.400081   -1.087386   -0.008818
     14          6           0       -2.356757    2.216362   -0.000723
     15          1           0       -1.990292    3.242376   -0.055869
     16          1           0       -3.030075    2.041072   -0.838405
     17          1           0       -2.954306    2.106919    0.902585
     18          6           0       -2.560272   -2.367815    0.018750
     19          1           0       -3.558573   -2.700207   -0.255997
     20          1           0       -1.838006   -2.788004   -0.678560
     21          1           0       -2.332173   -2.766287    1.010918
     22          6           0        3.758207   -0.588191    0.423620
     23          1           0        4.325035   -0.220199   -0.434506
     24          1           0        3.708697    0.206147    1.163914
     25          1           0        4.302207   -1.433407    0.840329
     26          6           0        2.407176    2.107636   -0.114099
     27          1           0        2.887631    2.240208    0.857755
     28          1           0        3.160821    1.742006   -0.807810
     29          1           0        2.098537    3.094366   -0.460809
 ---------------------------------------------------------------------
 Rotational constants (GHZ):           1.0702310           0.4891896           0.3417435
 Leave Link  202 at Fri Jan 23 16:47:42 2026, MaxMem=  2147483648 cpu:               0.0 elap:               0.0
 (Enter /data/home/wyx/g16/l301.exe)
 Standard basis: TZVP (5D, 7F)
 Ernie: Thresh=  0.10000D-02 Tol=  0.10000D-05 Strict=F.
 There are   370 symmetry adapted cartesian basis functions of A   symmetry.
 There are   356 symmetry adapted basis functions of A   symmetry.
   356 basis functions,   610 primitive gaussians,   370 cartesian basis functions
    52 alpha electrons       52 beta electrons
       nuclear repulsion energy       898.0749020426 Hartrees.
 IExCor=20419 DFT=T Ex+Corr=CAM-B3LYP ExCW=0 ScaHFX=  1.000000
 ScaDFX=  1.000000  1.000000  1.000000  0.810000 ScalE2=  1.000000  1.000000
 IRadAn=      5 IRanWt=     -1 IRanGd=            0 ICorTp=0 IEmpDi=141
 HFx  wShort=  0.000000 wLong=  0.330000 cFull=  0.190000 cShort=  0.000000 cLong=  0.460000
 DFx  wShort=  0.000000 wLong=  0.330000 cFull=  0.190000 cShort=  0.000000 cLong=  0.460000
 NAtoms=   29 NActive=   29 NUniq=   29 SFac= 1.00D+00 NAtFMM=   60 NAOKFM=F Big=F
 Integral buffers will be    131072 words long.
 Raffenetti 1 integral format.
 Two-electron integral symmetry is turned on.
 R6Disp:  Grimme-D3(BJ) Dispersion energy=       -0.0260901914 Hartrees.
 Nuclear repulsion after empirical dispersion term =      898.0488118512 Hartrees.
 ------------------------------------------------------------------------------
 Polarizable Continuum Model (PCM)
 =================================
 Model                : PCM.
 Atomic radii         : UFF (Universal Force Field).
 Polarization charges : Total charges.
 Charge compensation  : None.
 Solution method      : On-the-fly selection.
 Cavity type          : Scaled VdW (van der Waals Surface) (Alpha=1.100).
 Cavity algorithm     : GePol (No added spheres)
                        Default sphere list used, NSphG=   29.
                        Lebedev-Laikov grids with approx.  5.0 points / Ang**2.
                        Smoothing algorithm: York/Karplus (Gamma=1.0000).
                        Polarization charges: spherical gaussians, with
                                              point-specific exponents (IZeta= 3).
                        Self-potential: point-specific (ISelfS= 7).
                        Self-field    : sphere-specific E.n sum rule (ISelfD= 2).
 1st derivatives      : Analytical E(r).r(x)/FMM algorithm (CHGder, D1EAlg=3).
                        Cavity 1st derivative terms included.
 Solvent              : TetraHydroFuran, Eps=   7.425700 Eps(inf)=   1.974025
 ------------------------------------------------------------------------------
 GePol: Number of generator spheres                  =      29
 GePol: Total number of spheres                      =      29
 GePol: Number of exposed spheres                    =      29 (100.00%)
 GePol: Number of points                             =    2100
 GePol: Average weight of points                     =       0.13
 GePol: Minimum weight of points                     =   0.97D-10
 GePol: Maximum weight of points                     =    0.20577
 GePol: Number of points with low weight             =     134
 GePol: Fraction of low-weight points (<1% of avg)   =       6.38%
 GePol: Cavity surface area                          =    269.895 Ang**2
 GePol: Cavity volume                                =    287.884 Ang**3
 Leave Link  301 at Fri Jan 23 16:47:42 2026, MaxMem=  2147483648 cpu:               0.5 elap:               0.0
 (Enter /data/home/wyx/g16/l302.exe)
 NPDir=0 NMtPBC=     1 NCelOv=     1 NCel=       1 NClECP=     1 NCelD=      1
         NCelK=      1 NCelE2=     1 NClLst=     1 CellRange=     0.0.
 One-electron integrals computed using PRISM.
 One-electron integral symmetry used in STVInt
 NBasis=   356 RedAO= T EigKep=  3.81D-05  NBF=   356
 NBsUse=   356 1.00D-06 EigRej= -1.00D+00 NBFU=   356
 Precomputing XC quadrature grid using
 IXCGrd= 4 IRadAn=           5 IRanWt=          -1 IRanGd=           0 AccXCQ= 0.00D+00.
 Generated NRdTot=       0 NPtTot=           0 NUsed=           0 NTot=          32
 NSgBfM=   366   366   366   366   366 MxSgAt=    29 MxSgA2=    29.
 Leave Link  302 at Fri Jan 23 16:47:43 2026, MaxMem=  2147483648 cpu:               3.1 elap:               0.2
 (Enter /data/home/wyx/g16/l303.exe)
 DipDrv:  MaxL=1.
 Leave Link  303 at Fri Jan 23 16:47:43 2026, MaxMem=  2147483648 cpu:               0.6 elap:               0.0
 (Enter /data/home/wyx/g16/l308.exe)
 Leave Link  308 at Fri Jan 23 16:47:43 2026, MaxMem=  2147483648 cpu:               0.7 elap:               0.1
 (Enter /data/home/wyx/g16/l401.exe)
 Initial guess from the checkpoint file:  "DDL-S1-cLR-0.chk"
 B after Tr=    -0.000000    0.000000    0.000000
         Rot=    1.000000    0.000000    0.000000    0.000000 Ang=   0.00 deg.
 Guess basis will be translated and rotated to current coordinates.
 JPrj=2 DoOrth=T DoCkMO=T.
 Leave Link  401 at Fri Jan 23 16:47:43 2026, MaxMem=  2147483648 cpu:               2.2 elap:               0.2
 (Enter /data/home/wyx/g16/l502.exe)
 Integral symmetry usage will be decided dynamically.
 Closed shell SCF:
 Using DIIS extrapolation, IDIIS=  1040.
 NGot=  2147483648 LenX=  2147200095 LenY=  2147062754
 Requested convergence on RMS density matrix=1.00D-08 within 128 cycles.
 Requested convergence on MAX density matrix=1.00D-06.
 Requested convergence on             energy=1.00D-06.
 No special actions if energy rises.
 Fock matrices will be formed incrementally for  20 cycles.

 Cycle   1  Pass 1  IDiag  1:
 FoFJK:  IHMeth= 1 ICntrl=       0 DoSepK=T KAlg= 0 I1Cent=           0 FoldK=F
 IRaf=         1 NMat=       1 IRICut=       1 DoRegI=T DoRafI=F ISym2E= 0 IDoP0=0 IntGTp=1.
 FoFCou: FMM=F IPFlag=           0 FMFlag=      100000 FMFlg1=           0
         NFxFlg=           0 DoJE=T BraDBF=F KetDBF=F FulRan=T
         wScrn=  0.000000 ICntrl=       500 IOpCl=  0 I1Cent=           0 NGrid=           0
         NMat0=    1 NMatS0=      1 NMatT0=    0 NMatD0=    1 NMtDS0=    0 NMtDT0=    0
 Symmetry not used in FoFCou.
 Inv3:  Mode=1 IEnd=    13230000.
 Iteration    1 A*A^-1 deviation from unit magnitude is 3.11D-15 for   1015.
 Iteration    1 A*A^-1 deviation from orthogonality  is 2.30D-15 for   1389    940.
 Iteration    1 A^-1*A deviation from unit magnitude is 3.00D-15 for    430.
 Iteration    1 A^-1*A deviation from orthogonality  is 9.86D-14 for   1369   1338.
 E= -633.316992137302    
 DIIS: error= 2.05D-08 at cycle   1 NSaved=   1.
 NSaved= 1 IEnMin= 1 EnMin= -633.316992137302     IErMin= 1 ErrMin= 2.05D-08
 ErrMax= 2.05D-08  0.00D+00 EMaxC= 1.00D-01 BMatC= 8.98D-14 BMatP= 8.98D-14
 IDIUse=1 WtCom= 1.00D+00 WtEn= 0.00D+00
 Coeff-Com:  0.100D+01
 Coeff:      0.100D+01
 Gap=     0.214 Goal=   None    Shift=    0.000
 RMSDP=4.63D-09 MaxDP=1.58D-07              OVMax= 2.26D-07

 Error on total polarization charges =  0.01442
 SCF Done:  E(RCAM-B3LYP) =  -633.316992137     A.U. after    1 cycles
            NFock=  1  Conv=0.46D-08     -V/T= 2.0044
 KE= 6.305549833137D+02 PE=-3.271952319087D+03 EE= 1.110031531785D+03
 Leave Link  502 at Fri Jan 23 16:47:49 2026, MaxMem=  2147483648 cpu:              85.3 elap:               5.6
 (Enter /data/home/wyx/g16/l801.exe)
 DoSCS=F DFT=T ScalE2(SS,OS)=  1.000000  1.000000
 ExpMin= 9.52D-02 ExpMax= 2.70D+04 ExpMxC= 9.22D+02 IAcc=3 IRadAn=         5 AccDes= 0.00D+00
 HarFok:  IExCor=  205 AccDes= 0.00D+00 IRadAn=         5 IDoV=-2 UseB2=F ITyADJ=14
 ICtDFT= 12500011 ScaDFX=  1.000000  1.000000  1.000000  1.000000
 Largest valence mixing into a core orbital is  5.58D-05
 Largest core mixing into a valence orbital is  1.13D-05
 Range of M.O.s used for correlation:    15   356
 NBasis=   356 NAE=    52 NBE=    52 NFC=    14 NFV=     0
 NROrb=    342 NOA=    38 NOB=    38 NVA=   304 NVB=   304

 **** Warning!!: The largest alpha MO coefficient is  0.60726105D+02

 Leave Link  801 at Fri Jan 23 16:47:50 2026, MaxMem=  2147483648 cpu:               1.0 elap:               0.1
 (Enter /data/home/wyx/g16/l914.exe)
 RHF ground state
 Two-electron integrals replicated using symmetry.
 MDV=  2147483648 DFT=T DoStab=F Mixed=T DoRPA=T DoScal=F NonHer=T
 NEqPCM:  Using equilibrium solvation (IEInf=0, Eps=   7.4257, EpsInf=   1.9740)
 Making orbital integer symmetry assigments:
 Orbital symmetries:
       Occupied  (A) (A) (A) (A) (A) (A) (A) (A) (A) (A) (A) (A)
                 (A) (A) (A) (A) (A) (A) (A) (A) (A) (A) (A) (A)
                 (A) (A) (A) (A) (A) (A) (A) (A) (A) (A) (A) (A)
                 (A) (A) (A) (A) (A) (A) (A) (A) (A) (A) (A) (A)
                 (A) (A) (A) (A)
       Virtual   (A) (A) (A) (A) (A) (A) (A) (A) (A) (A) (A) (A)
                 (A) (A) (A) (A) (A) (A) (A) (A) (A) (A) (A) (A)
                 (A) (A) (A) (A) (A) (A) (A) (A) (A) (A) (A) (A)
                 (A) (A) (A) (A) (A) (A) (A) (A) (A) (A) (A) (A)
                 (A) (A) (A) (A) (A) (A) (A) (A) (A) (A) (A) (A)
                 (A) (A) (A) (A) (A) (A) (A) (A) (A) (A) (A) (A)
                 (A) (A) (A) (A) (A) (A) (A) (A) (A) (A) (A) (A)
                 (A) (A) (A) (A) (A) (A) (A) (A) (A) (A) (A) (A)
                 (A) (A) (A) (A) (A) (A) (A) (A) (A) (A) (A) (A)
                 (A) (A) (A) (A) (A) (A) (A) (A) (A) (A) (A) (A)
                 (A) (A) (A) (A) (A) (A) (A) (A) (A) (A) (A) (A)
                 (A) (A) (A) (A) (A) (A) (A) (A) (A) (A) (A) (A)
                 (A) (A) (A) (A) (A) (A) (A) (A) (A) (A) (A) (A)
                 (A) (A) (A) (A) (A) (A) (A) (A) (A) (A) (A) (A)
                 (A) (A) (A) (A) (A) (A) (A) (A) (A) (A) (A) (A)
                 (A) (A) (A) (A) (A) (A) (A) (A) (A) (A) (A) (A)
                 (A) (A) (A) (A) (A) (A) (A) (A) (A) (A) (A) (A)
                 (A) (A) (A) (A) (A) (A) (A) (A) (A) (A) (A) (A)
                 (A) (A) (A) (A) (A) (A) (A) (A) (A) (A) (A) (A)
                 (A) (A) (A) (A) (A) (A) (A) (A) (A) (A) (A) (A)
                 (A) (A) (A) (A) (A) (A) (A) (A) (A) (A) (A) (A)
                 (A) (A) (A) (A) (A) (A) (A) (A) (A) (A) (A) (A)
                 (A) (A) (A) (A) (A) (A) (A) (A) (A) (A) (A) (A)
                 (A) (A) (A) (A) (A) (A) (A) (A) (A) (A) (A) (A)
                 (A) (A) (A) (A) (A) (A) (A) (A) (A) (A) (A) (A)
                 (A) (A) (A) (A)
 PCM Corrected Linear-Response:
 Compute the excitation energies in the ground state reaction field.
    24 initial guesses have been made.
 Convergence on wavefunction:    0.000001000000000
 Davidson Disk Diagonalization:  ConvIn= 1.00D-06 SkipCon=T Conv= 1.00D-06.
 Max sub-space:  2000 roots to seek:    24 dimension of matrix:        23104
 Iteration     1 Dimension    24 NMult     0 NNew     24
 CISAX will form    24 AO SS matrices at one time.
 NMat=    24 NSing=    24 JSym2X= 0.
 FoFJK:  IHMeth= 1 ICntrl=       0 DoSepK=T KAlg= 0 I1Cent=           0 FoldK=F
 IRaf=         1 NMat=      48 IRICut=       1 DoRegI=T DoRafI=F ISym2E= 0 IDoP0=3 IntGTp=3.
 FoFCou: FMM=F IPFlag=           0 FMFlag=      100000 FMFlg1=           0
         NFxFlg=           0 DoJE=F BraDBF=F KetDBF=F FulRan=T
         wScrn=  0.000000 ICntrl=       500 IOpCl=  0 I1Cent=           0 NGrid=           0
         NMat0=   24 NMatS0=     24 NMatT0=    0 NMatD0=   24 NMtDS0=    0 NMtDT0=    0
 Symmetry not used in FoFCou.
 New state      2 was old state      3
 New state      3 was old state      4
 New state      4 was old state      2
 New state      5 was old state      6
 New state      6 was old state      5
 Excitation Energies [eV] at current iteration:
 Root      1 :     3.431226529765161
 Root      2 :     4.115799573382580
 Root      3 :     4.337255389843348
 Root      4 :     5.236345645630964
 Root      5 :     5.853134390808112
 Root      6 :     6.223003070896937
 Root      7 :     6.400022449858243
 Root      8 :     6.653937261195305
 Root      9 :     6.756021324014709
 Root     10 :     6.932018772114769
 Root     11 :     7.017232191495125
 Root     12 :     7.221520361027757
 Root     13 :     7.265059497967739
 Root     14 :     7.303060754377970
 Root     15 :     7.664758076719270
 Root     16 :     7.888809148994683
 Root     17 :     7.982177539383994
 Root     18 :     8.070306687527978
 Root     19 :     8.092081397657546
 Root     20 :     8.287651300698249
 Root     21 :     8.350502742532619
 Root     22 :     8.500321710466800
 Root     23 :     8.604973222649022
 Root     24 :     8.785095286106708
 Iteration     2 Dimension    36 NMult    24 NNew     12
 CISAX will form    12 AO SS matrices at one time.
 NMat=    12 NSing=    12 JSym2X= 0.
 Root      1 not converged, maximum delta is    0.037657072519746
 Root      2 not converged, maximum delta is    0.075831054502621
 Root      3 not converged, maximum delta is    0.085174630615261
 Root      4 not converged, maximum delta is    0.177087842543240
 New state      5 was old state      6
 Root      5 not converged, maximum delta is    0.167005746079285
 New state      6 was old state      5
 Root      6 not converged, maximum delta is    0.073032978137493
 Excitation Energies [eV] at current iteration:
 Root      1 :     2.962132343650472   Change is   -0.469094186114689
 Root      2 :     3.905397210056127   Change is   -0.210402363326453
 Root      3 :     4.083043048421774   Change is   -0.254212341421573
 Root      4 :     4.928142983447885   Change is   -0.308202662183078
 Root      5 :     5.408441048704129   Change is   -0.814562022192807
 Root      6 :     5.751555279375217   Change is   -0.101579111432895
 Iteration     3 Dimension    48 NMult    36 NNew     12
 CISAX will form    12 AO SS matrices at one time.
 NMat=    12 NSing=    12 JSym2X= 0.
 Root      1 not converged, maximum delta is    0.008015375711352
 Root      2 not converged, maximum delta is    0.017731548352475
 Root      3 not converged, maximum delta is    0.013302415631637
 Root      4 not converged, maximum delta is    0.022685546296795
 Root      5 not converged, maximum delta is    0.027226417256970
 Root      6 not converged, maximum delta is    0.006867512783281
 Excitation Energies [eV] at current iteration:
 Root      1 :     2.942469012552797   Change is   -0.019663331097674
 Root      2 :     3.892784588561170   Change is   -0.012612621494957
 Root      3 :     4.068704199301964   Change is   -0.014338849119810
 Root      4 :     4.908948969213801   Change is   -0.019194014234084
 Root      5 :     5.363958130069970   Change is   -0.044482918634159
 Root      6 :     5.747075232043337   Change is   -0.004480047331880
 Iteration     4 Dimension    60 NMult    48 NNew     12
 CISAX will form    12 AO SS matrices at one time.
 NMat=    12 NSing=    12 JSym2X= 0.
 Root      1 not converged, maximum delta is    0.002609375781841
 Root      2 not converged, maximum delta is    0.001937119450191
 Root      3 not converged, maximum delta is    0.002488594433481
 Root      4 not converged, maximum delta is    0.002763622231369
 Root      5 not converged, maximum delta is    0.003549332597116
 Root      6 not converged, maximum delta is    0.001985671103479
 Excitation Energies [eV] at current iteration:
 Root      1 :     2.941040542147250   Change is   -0.001428470405548
 Root      2 :     3.892243401668930   Change is   -0.000541186892240
 Root      3 :     4.067681502220013   Change is   -0.001022697081951
 Root      4 :     4.906939548202557   Change is   -0.002009421011244
 Root      5 :     5.358591297270947   Change is   -0.005366832799023
 Root      6 :     5.746795298977883   Change is   -0.000279933065454
 Iteration     5 Dimension    72 NMult    60 NNew     12
 CISAX will form    12 AO SS matrices at one time.
 NMat=    12 NSing=    12 JSym2X= 0.
 Root      1 not converged, maximum delta is    0.000732762739870
 Root      2 not converged, maximum delta is    0.000367194092435
 Root      3 not converged, maximum delta is    0.000458605291833
 Root      4 not converged, maximum delta is    0.000658266934613
 Root      5 not converged, maximum delta is    0.001155648502851
 Root      6 not converged, maximum delta is    0.000363457764092
 Excitation Energies [eV] at current iteration:
 Root      1 :     2.940957288838904   Change is   -0.000083253308346
 Root      2 :     3.892197867062801   Change is   -0.000045534606129
 Root      3 :     4.067634833034266   Change is   -0.000046669185747
 Root      4 :     4.906790664364086   Change is   -0.000148883838470
 Root      5 :     5.358164570583916   Change is   -0.000426726687031
 Root      6 :     5.746773677508480   Change is   -0.000021621469403
 Iteration     6 Dimension    84 NMult    72 NNew     12
 CISAX will form    12 AO SS matrices at one time.
 NMat=    12 NSing=    12 JSym2X= 0.
 Root      1 not converged, maximum delta is    0.000125901388577
 Root      2 not converged, maximum delta is    0.000139414589228
 Root      3 not converged, maximum delta is    0.000111104940669
 Root      4 not converged, maximum delta is    0.000136135962742
 Root      5 not converged, maximum delta is    0.000529323712701
 Root      6 not converged, maximum delta is    0.000092386107267
 Excitation Energies [eV] at current iteration:
 Root      1 :     2.940953306682088   Change is   -0.000003982156816
 Root      2 :     3.892195219546092   Change is   -0.000002647516709
 Root      3 :     4.067631925592074   Change is   -0.000002907442191
 Root      4 :     4.906781480595151   Change is   -0.000009183768936
 Root      5 :     5.358131172380951   Change is   -0.000033398202964
 Root      6 :     5.746771783880194   Change is   -0.000001893628286
 Iteration     7 Dimension    96 NMult    84 NNew     12
 CISAX will form    12 AO SS matrices at one time.
 NMat=    12 NSing=    12 JSym2X= 0.
 Root      1 not converged, maximum delta is    0.000013239776211
 Root      2 not converged, maximum delta is    0.000032200876416
 Root      3 not converged, maximum delta is    0.000035467729201
 Root      4 not converged, maximum delta is    0.000045616378509
 Root      5 not converged, maximum delta is    0.000268387541161
 Root      6 not converged, maximum delta is    0.000045863719880
 Excitation Energies [eV] at current iteration:
 Root      1 :     2.940953132510243   Change is   -0.000000174171845
 Root      2 :     3.892195076565030   Change is   -0.000000142981061
 Root      3 :     4.067631729958917   Change is   -0.000000195633157
 Root      4 :     4.906780848276076   Change is   -0.000000632319074
 Root      5 :     5.358127591728212   Change is   -0.000003580652740
 Root      6 :     5.746771625226932   Change is   -0.000000158653261
 Iteration     8 Dimension   108 NMult    96 NNew     12
 CISAX will form    12 AO SS matrices at one time.
 NMat=    12 NSing=    12 JSym2X= 0.
 Root      1 not converged, maximum delta is    0.000002020674088
 Root      2 not converged, maximum delta is    0.000004646283476
 Root      3 not converged, maximum delta is    0.000004625369571
 Root      4 not converged, maximum delta is    0.000018312201840
 Root      5 not converged, maximum delta is    0.000053041039770
 Root      6 not converged, maximum delta is    0.000012251154556
 Excitation Energies [eV] at current iteration:
 Root      1 :     2.940953125875395   Change is   -0.000000006634848
 Root      2 :     3.892195070874853   Change is   -0.000000005690177
 Root      3 :     4.067631720178712   Change is   -0.000000009780206
 Root      4 :     4.906780798176543   Change is   -0.000000050099534
 Root      5 :     5.358127337458252   Change is   -0.000000254269960
 Root      6 :     5.746771612262692   Change is   -0.000000012964241
 Iteration     9 Dimension   120 NMult   108 NNew     12
 CISAX will form    12 AO SS matrices at one time.
 NMat=    12 NSing=    12 JSym2X= 0.
 Root      1 has converged.
 Root      2 has converged.
 Root      3 has converged.
 Root      4 not converged, maximum delta is    0.000004773780005
 Root      5 not converged, maximum delta is    0.000007064232474
 Root      6 not converged, maximum delta is    0.000002341138810
 Excitation Energies [eV] at current iteration:
 Root      1 :     2.940953125615323   Change is   -0.000000000260072
 Root      2 :     3.892195070663874   Change is   -0.000000000210979
 Root      3 :     4.067631719859008   Change is   -0.000000000319704
 Root      4 :     4.906780795285932   Change is   -0.000000002890611
 Root      5 :     5.358127324238791   Change is   -0.000000013219461
 Root      6 :     5.746771611338961   Change is   -0.000000000923731
 Iteration    10 Dimension   126 NMult   120 NNew      6
 CISAX will form     6 AO SS matrices at one time.
 NMat=     6 NSing=     6 JSym2X= 0.
 Root      1 has converged.
 Root      2 has converged.
 Root      3 has converged.
 Root      4 not converged, maximum delta is    0.000001028342645
 Root      5 not converged, maximum delta is    0.000001193781894
 Root      6 has converged.
 Excitation Energies [eV] at current iteration:
 Root      1 :     2.940953125614317   Change is   -0.000000000001006
 Root      2 :     3.892195070661678   Change is   -0.000000000002196
 Root      3 :     4.067631719855531   Change is   -0.000000000003476
 Root      4 :     4.906780795144596   Change is   -0.000000000141336
 Root      5 :     5.358127323601015   Change is   -0.000000000637776
 Root      6 :     5.746771611277722   Change is   -0.000000000061239
 Iteration    11 Dimension   130 NMult   126 NNew      4
 CISAX will form     4 AO SS matrices at one time.
 NMat=     4 NSing=     4 JSym2X= 0.
 Root      1 has converged.
 Root      2 has converged.
 Root      3 has converged.
 Root      4 has converged.
 Root      5 has converged.
 Root      6 has converged.
 Excitation Energies [eV] at current iteration:
 Root      1 :     2.940953125614233   Change is   -0.000000000000084
 Root      2 :     3.892195070661551   Change is   -0.000000000000127
 Root      3 :     4.067631719855390   Change is   -0.000000000000141
 Root      4 :     4.906780795136488   Change is   -0.000000000008109
 Root      5 :     5.358127323570284   Change is   -0.000000000030731
 Root      6 :     5.746771611277135   Change is   -0.000000000000587
 Convergence achieved on expansion vectors.
 PCM Corrected Linear-Response:
 The state of interest is root number   1
 Excitation energy =    2.9410 eV, Total energy =  -633.208914099    
 Recompute the excitation energies using the linear response reaction field.
 Convergence on wavefunction:    0.000001000000000
 Davidson Disk Diagonalization:  ConvIn= 1.00D-06 SkipCon=T Conv= 1.00D-06.
 Max sub-space:  2000 roots to seek:     6 dimension of matrix:        23104
 Iteration     1 Dimension     6 NMult     0 NNew      6
 CISAX will form     6 AO SS matrices at one time.
 NMat=     6 NSing=     6 JSym2X= 0.
 Excitation Energies [eV] at current iteration:
 Root      1 :     3.063263946554160
 Root      2 :     3.917625501875861
 Root      3 :     4.094211334797592
 Root      4 :     4.983460664523624
 Root      5 :     5.552185225924299
 Root      6 :     5.722666822685163
 Iteration     2 Dimension    18 NMult     6 NNew     12
 CISAX will form    12 AO SS matrices at one time.
 NMat=    12 NSing=    12 JSym2X= 0.
 Root      1 not converged, maximum delta is    0.023156316371643
 Root      2 not converged, maximum delta is    0.002327902647682
 Root      3 not converged, maximum delta is    0.006814426882762
 Root      4 not converged, maximum delta is    0.208139595000829
 Root      5 not converged, maximum delta is    0.267075006967219
 Root      6 not converged, maximum delta is    0.080906207314728
 Excitation Energies [eV] at current iteration:
 Root      1 :     2.827163194741724   Change is   -0.236100751812436
 Root      2 :     3.888320824469834   Change is   -0.029304677406026
 Root      3 :     4.062778628306192   Change is   -0.031432706491400
 Root      4 :     4.789060561854869   Change is   -0.194400102668756
 Root      5 :     5.223835786868062   Change is   -0.328349439056237
 Root      6 :     5.705001769269664   Change is   -0.017665053415498
 Iteration     3 Dimension    30 NMult    18 NNew     12
 CISAX will form    12 AO SS matrices at one time.
 NMat=    12 NSing=    12 JSym2X= 0.
 Root      1 not converged, maximum delta is    0.002305140284512
 Root      2 not converged, maximum delta is    0.000831263157350
 Root      3 not converged, maximum delta is    0.001143295375077
 Root      4 not converged, maximum delta is    0.011391924020251
 Root      5 not converged, maximum delta is    0.014650905231543
 Root      6 not converged, maximum delta is    0.008623127635499
 Excitation Energies [eV] at current iteration:
 Root      1 :     2.824410250924156   Change is   -0.002752943817568
 Root      2 :     3.888063611444849   Change is   -0.000257213024985
 Root      3 :     4.062488528866576   Change is   -0.000290099439616
 Root      4 :     4.781621129462394   Change is   -0.007439432392474
 Root      5 :     5.214595445870851   Change is   -0.009240340997211
 Root      6 :     5.703832314508898   Change is   -0.001169454760766
 Iteration     4 Dimension    42 NMult    30 NNew     12
 CISAX will form    12 AO SS matrices at one time.
 NMat=    12 NSing=    12 JSym2X= 0.
 Root      1 not converged, maximum delta is    0.001535492797744
 Root      2 not converged, maximum delta is    0.000227382218310
 Root      3 not converged, maximum delta is    0.000207554927236
 Root      4 not converged, maximum delta is    0.002696837175321
 Root      5 not converged, maximum delta is    0.005362920419026
 Root      6 not converged, maximum delta is    0.010701755065944
 Excitation Energies [eV] at current iteration:
 Root      1 :     2.824077580950366   Change is   -0.000332669973790
 Root      2 :     3.888050900092133   Change is   -0.000012711352716
 Root      3 :     4.062472326717487   Change is   -0.000016202149089
 Root      4 :     4.780539069296286   Change is   -0.001082060166108
 Root      5 :     5.213225093040224   Change is   -0.001370352830627
 Root      6 :     5.703404872377793   Change is   -0.000427442131105
 Iteration     5 Dimension    54 NMult    42 NNew     12
 CISAX will form    12 AO SS matrices at one time.
 NMat=    12 NSing=    12 JSym2X= 0.
 Root      1 not converged, maximum delta is    0.000282292795629
 Root      2 not converged, maximum delta is    0.000104437174999
 Root      3 not converged, maximum delta is    0.000091288590125
 Root      4 not converged, maximum delta is    0.000581369359142
 Root      5 not converged, maximum delta is    0.000618717911092
 Root      6 not converged, maximum delta is    0.004416320914597
 Excitation Energies [eV] at current iteration:
 Root      1 :     2.824056162850860   Change is   -0.000021418099507
 Root      2 :     3.888050110270638   Change is   -0.000000789821495
 Root      3 :     4.062470903722885   Change is   -0.000001422994602
 Root      4 :     4.780436236990698   Change is   -0.000102832305589
 Root      5 :     5.213074636640191   Change is   -0.000150456400033
 Root      6 :     5.703305888255024   Change is   -0.000098984122770
 Iteration     6 Dimension    66 NMult    54 NNew     12
 CISAX will form    12 AO SS matrices at one time.
 NMat=    12 NSing=    12 JSym2X= 0.
 Root      1 not converged, maximum delta is    0.000039855377615
 Root      2 not converged, maximum delta is    0.000023195149765
 Root      3 not converged, maximum delta is    0.000024604371355
 Root      4 not converged, maximum delta is    0.000310749531163
 Root      5 not converged, maximum delta is    0.000307367791169
 Root      6 not converged, maximum delta is    0.000980156121366
 Excitation Energies [eV] at current iteration:
 Root      1 :     2.824054887492932   Change is   -0.000001275357928
 Root      2 :     3.888050048535450   Change is   -0.000000061735188
 Root      3 :     4.062470784913788   Change is   -0.000000118809097
 Root      4 :     4.780425952133846   Change is   -0.000010284856852
 Root      5 :     5.213060022917278   Change is   -0.000014613722913
 Root      6 :     5.703290986511539   Change is   -0.000014901743484
 Iteration     7 Dimension    78 NMult    66 NNew     12
 CISAX will form    12 AO SS matrices at one time.
 NMat=    12 NSing=    12 JSym2X= 0.
 Root      1 not converged, maximum delta is    0.000009698472882
 Root      2 not converged, maximum delta is    0.000004241864623
 Root      3 not converged, maximum delta is    0.000004962590875
 Root      4 not converged, maximum delta is    0.000123437440177
 Root      5 not converged, maximum delta is    0.000121413381124
 Root      6 not converged, maximum delta is    0.000157635695897
 Excitation Energies [eV] at current iteration:
 Root      1 :     2.824054841700509   Change is   -0.000000045792423
 Root      2 :     3.888050044882062   Change is   -0.000000003653387
 Root      3 :     4.062470777928821   Change is   -0.000000006984968
 Root      4 :     4.780425185256957   Change is   -0.000000766876889
 Root      5 :     5.213058852881360   Change is   -0.000001170035919
 Root      6 :     5.703289683770519   Change is   -0.000001302741020
 Iteration     8 Dimension    90 NMult    78 NNew     12
 CISAX will form    12 AO SS matrices at one time.
 NMat=    12 NSing=    12 JSym2X= 0.
 Root      1 not converged, maximum delta is    0.000003285472598
 Root      2 not converged, maximum delta is    0.000001168386814
 Root      3 not converged, maximum delta is    0.000001023081270
 Root      4 not converged, maximum delta is    0.000014773018790
 Root      5 not converged, maximum delta is    0.000027366978487
 Root      6 not converged, maximum delta is    0.000064928256634
 Excitation Energies [eV] at current iteration:
 Root      1 :     2.824054839683553   Change is   -0.000000002016956
 Root      2 :     3.888050044734649   Change is   -0.000000000147414
 Root      3 :     4.062470777577810   Change is   -0.000000000351011
 Root      4 :     4.780425140069647   Change is   -0.000000045187310
 Root      5 :     5.213058764497607   Change is   -0.000000088383752
 Root      6 :     5.703289507033176   Change is   -0.000000176737343
 Iteration     9 Dimension   102 NMult    90 NNew     12
 CISAX will form    12 AO SS matrices at one time.
 NMat=    12 NSing=    12 JSym2X= 0.
 Root      1 has converged.
 Root      2 has converged.
 Root      3 has converged.
 Root      4 not converged, maximum delta is    0.000004179437650
 Root      5 not converged, maximum delta is    0.000008423902520
 Root      6 not converged, maximum delta is    0.000022934914975
 Excitation Energies [eV] at current iteration:
 Root      1 :     2.824054839615174   Change is   -0.000000000068379
 Root      2 :     3.888050044727481   Change is   -0.000000000007167
 Root      3 :     4.062470777561034   Change is   -0.000000000016776
 Root      4 :     4.780425137568680   Change is   -0.000000002500967
 Root      5 :     5.213058758288038   Change is   -0.000000006209570
 Root      6 :     5.703289481928580   Change is   -0.000000025104595
 Iteration    10 Dimension   108 NMult   102 NNew      6
 CISAX will form     6 AO SS matrices at one time.
 NMat=     6 NSing=     6 JSym2X= 0.
 Root      1 has converged.
 Root      2 has converged.
 Root      3 has converged.
 Root      4 has converged.
 Root      5 not converged, maximum delta is    0.000001779198009
 Root      6 not converged, maximum delta is    0.000006539860162
 Excitation Energies [eV] at current iteration:
 Root      1 :     2.824054839614737   Change is   -0.000000000000437
 Root      2 :     3.888050044727312   Change is   -0.000000000000169
 Root      3 :     4.062470777560873   Change is   -0.000000000000162
 Root      4 :     4.780425137448646   Change is   -0.000000000120033
 Root      5 :     5.213058757887743   Change is   -0.000000000400294
 Root      6 :     5.703289479277389   Change is   -0.000000002651191
 Iteration    11 Dimension   112 NMult   108 NNew      4
 CISAX will form     4 AO SS matrices at one time.
 NMat=     4 NSing=     4 JSym2X= 0.
 Root      1 has converged.
 Root      2 has converged.
 Root      3 has converged.
 Root      4 has converged.
 Root      5 has converged.
 Root      6 not converged, maximum delta is    0.000001548477007
 Excitation Energies [eV] at current iteration:
 Root      1 :     2.824054839614505   Change is   -0.000000000000233
 Root      2 :     3.888050044727354   Change is    0.000000000000042
 Root      3 :     4.062470777560812   Change is   -0.000000000000061
 Root      4 :     4.780425137444434   Change is   -0.000000000004213
 Root      5 :     5.213058757860368   Change is   -0.000000000027375
 Root      6 :     5.703289479083089   Change is   -0.000000000194301
 Iteration    12 Dimension   114 NMult   112 NNew      2
 CISAX will form     2 AO SS matrices at one time.
 NMat=     2 NSing=     2 JSym2X= 0.
 Root      1 has converged.
 Root      2 has converged.
 Root      3 has converged.
 Root      4 has converged.
 Root      5 has converged.
 Root      6 has converged.
 Excitation Energies [eV] at current iteration:
 Root      1 :     2.824054839614563   Change is    0.000000000000058
 Root      2 :     3.888050044727333   Change is   -0.000000000000021
 Root      3 :     4.062470777560792   Change is   -0.000000000000020
 Root      4 :     4.780425137444365   Change is   -0.000000000000069
 Root      5 :     5.213058757860336   Change is   -0.000000000000032
 Root      6 :     5.703289479069179   Change is   -0.000000000013910
 Convergence achieved on expansion vectors.
 ***********************************************************************
 Excited states from <AA,BB:AA,BB> singles matrix:
 ***********************************************************************
 
 1PDM for each excited state written to RWF  633
 Ground to excited state transition densities written to RWF  633
 Ground to excited state transition electric dipole moments (Au):
       state          X           Y           Z        Dip. S.      Osc.
         1         1.6263     -0.1755     -0.0481      2.6780      0.1853
         2         0.0225     -0.0488      0.0338      0.0040      0.0004
         3        -0.0795      0.0831     -0.0214      0.0137      0.0014
         4         0.1932      1.7059     -0.0330      2.9486      0.3453
         5        -0.0789     -1.5641     -0.0060      2.4527      0.3133
         6        -0.0089     -0.1895     -0.0375      0.0374      0.0052
 Ground to excited state transition velocity dipole moments (Au):
       state          X           Y           Z        Dip. S.      Osc.
         1        -0.1627      0.0144      0.0050      0.0267      0.1714
         2        -0.0033      0.0072     -0.0015      0.0001      0.0003
         3         0.0109     -0.0099     -0.0001      0.0002      0.0010
         4        -0.0394     -0.2858      0.0035      0.0833      0.3160
         5         0.0156      0.2935      0.0002      0.0864      0.3006
         6         0.0033      0.0381      0.0281      0.0022      0.0071
 Ground to excited state transition magnetic dipole moments (Au):
       state          X           Y           Z
         1         0.0080     -0.0631      1.4800
         2         0.7760     -0.1161     -0.0358
         3         0.1896     -0.9567     -0.2243
         4        -0.0097      0.0448     -0.0668
         5         0.0804     -0.0967      0.2740
         6        -0.0659      0.0152     -0.0448
 Ground to excited state transition velocity quadrupole moments (Au):
       state          XX          YY          ZZ          XY          XZ          YZ
         1         0.1638     -0.0867     -0.0064      0.4665     -0.0217     -0.0191
         2         0.0269     -0.0088     -0.0122     -0.0014      0.0079      0.0737
         3        -0.0462      0.0106      0.0163     -0.0686      0.0621      0.0103
         4         1.3201     -0.2708     -0.0203     -0.0664     -0.0658      0.0228
         5        -0.4462      0.2935      0.0288      0.2274      0.0567     -0.0070
         6         0.0864      0.1200     -0.0941     -0.0144     -0.0259     -0.1305
 <0|del|b> * <b|rxdel|0> + <0|del|b> * <b|delr+rdel|0>
 Rotatory Strengths (R) in cgs (10**-40 erg-esu-cm/Gauss)
       state          XX          YY          ZZ    R(velocity)    E-M Angle
         1        31.2417     23.4813    -19.1477     11.8584       88.76
         2        -2.0572     -6.7735     -7.6280     -5.4862      121.79
         3        23.8152      5.1956     25.5240     18.1783       38.60
         4       -64.5366     -1.0451     14.6404    -16.9804      122.77
         5       -82.9578      2.1276    -19.1373    -33.3225      107.79
         6        -0.1625     -2.5214     -0.3336     -1.0059      103.45
 1/2[<0|r|b>*<b|rxdel|0> + (<0|rxdel|b>*<b|r|0>)*]
 Rotatory Strengths (R) in cgs (10**-40 erg-esu-cm/Gauss)
       state          XX          YY          ZZ     R(length)
         1        -9.1644     -7.8253     50.2891     11.0998
         2       -12.3459     -4.0060      0.8558     -5.1654
         3        10.6599     56.2238     -3.3993     21.1615
         4         1.3270    -54.0515     -1.5602    -18.0949
         5         4.4875   -106.9549      1.1604    -33.7690
         6        -0.4155      2.0319     -1.1890      0.1425
  1/2[<0|del|b>*<b|r|0> + (<0|r|b>*<b|del|0>)*] (Au)
       state          X           Y           Z        Dip. S.   Osc.(frdel)
         1        -0.2645     -0.0025     -0.0002      0.2673      0.1782
         2        -0.0001     -0.0003     -0.0001      0.0005      0.0003
         3        -0.0009     -0.0008      0.0000      0.0017      0.0011
         4        -0.0076     -0.4876     -0.0001      0.4954      0.3302
         5        -0.0012     -0.4591     -0.0000      0.4603      0.3069
         6        -0.0000     -0.0072     -0.0011      0.0083      0.0055

 Excitation energies and oscillator strengths:
 
 Excited State   1:      Singlet-A      2.8241 eV  439.03 nm  f=0.1853  <S**2>=0.000
      52 -> 53         0.70203
 This state for optimization and/or second-order correction.
 Total Energy, E(TD-HF/TD-DFT) =  -633.213210032    
 Copying the excited state density for this state as the 1-particle RhoCI density.
 
 Excited State   2:      Singlet-A      3.8881 eV  318.89 nm  f=0.0004  <S**2>=0.000
      50 -> 54         0.15538
      51 -> 53         0.59281
      51 -> 54         0.31229
 
 Excited State   3:      Singlet-A      4.0625 eV  305.19 nm  f=0.0014  <S**2>=0.000
      49 -> 53         0.30479
      49 -> 54        -0.16547
      50 -> 53         0.51347
      50 -> 54        -0.23121
      50 -> 58         0.10701
      51 -> 54         0.18912
 
 Excited State   4:      Singlet-A      4.7804 eV  259.36 nm  f=0.3453  <S**2>=0.000
      52 -> 54         0.69704
 
 Excited State   5:      Singlet-A      5.2131 eV  237.83 nm  f=0.3133  <S**2>=0.000
      49 -> 53         0.59045
      50 -> 53        -0.35426
 
 Excited State   6:      Singlet-A      5.7033 eV  217.39 nm  f=0.0052  <S**2>=0.000
      52 -> 55         0.64566
      52 -> 56         0.17117
      52 -> 57         0.13779
      52 -> 62        -0.10948
 SavETr:  write IOETrn=   770 NScale= 10 NData=  16 NLR=1 NState=    6 LETran=     118.
 The selected state is a singlet.
 CISGrd: IGrad=1 NXY=2 DFT=T
 CISAX will form     1 AO SS matrices at one time.
 NMat=     1 NSing=     1 JSym2X= 0.
 Leave Link  914 at Fri Jan 23 16:55:48 2026, MaxMem=  2147483648 cpu:            7621.4 elap:             477.8
 (Enter /data/home/wyx/g16/l1002.exe)
 Minotr:  Closed shell wavefunction.
          Computing CIS/TDA/TD derivatives.
          Using Z-Vector for PSCF gradient.
          Skipping F1 and S1 gradient terms here.
 NEqPCM:  Using equilibrium solvation (IEInf=0, Eps=   7.4257, EpsInf=   1.9740)
          Frozen-core window.
          Direct CPHF calculation.
          Differentiating once with respect to electric field.
                with respect to dipole field.
          Electric field/nuclear overlap derivatives assumed to be zero.
          Requested convergence is 1.0D-10 RMS, and 1.0D-09 maximum.
          NewPWx=F KeepS1=T KeepF1=T KeepIn=T MapXYZ=F SortEE=F KeepMc=T.
 Two-electron integral symmetry used by symmetrizing perturbed Fock matrices.
          MDV=    2147483648 using IRadAn=       5.
          Solving linear equations separately, MaxMat=     384.
          There are     1 degrees of freedom in the 1st order CPHF.  IDoFFX=0 NUNeed=     1.
 FoFJK:  IHMeth= 1 ICntrl=       0 DoSepK=T KAlg= 0 I1Cent=           0 FoldK=F
 IRaf=         1 NMat=       1 IRICut=       1 DoRegI=T DoRafI=F ISym2E=-1 IDoP0=0 IntGTp=1.
 FoFCou: FMM=F IPFlag=           0 FMFlag=      100000 FMFlg1=           0
         NFxFlg=           0 DoJE=T BraDBF=F KetDBF=F FulRan=T
         wScrn=  0.000000 ICntrl=       500 IOpCl=  0 I1Cent=           0 NGrid=           0
         NMat0=    1 NMatS0=      1 NMatT0=    0 NMatD0=    1 NMtDS0=    0 NMtDT0=    0
 Petite list used in FoFCou.
 LinEq1:  Iter=  0 NonCon=     1 RMS=3.59D-03 Max=1.63D-01 NDo=     1
 AX will form     1 AO Fock derivatives at one time.
 LinEq1:  Iter=  1 NonCon=     1 RMS=1.49D-03 Max=7.06D-02 NDo=     1
 LinEq1:  Iter=  2 NonCon=     1 RMS=7.05D-04 Max=2.13D-02 NDo=     1
 LinEq1:  Iter=  3 NonCon=     1 RMS=4.36D-04 Max=1.48D-02 NDo=     1
 LinEq1:  Iter=  4 NonCon=     1 RMS=2.08D-04 Max=1.13D-02 NDo=     1
 LinEq1:  Iter=  5 NonCon=     1 RMS=1.04D-04 Max=5.06D-03 NDo=     1
 LinEq1:  Iter=  6 NonCon=     1 RMS=6.57D-05 Max=2.89D-03 NDo=     1
 LinEq1:  Iter=  7 NonCon=     1 RMS=3.21D-05 Max=1.74D-03 NDo=     1
 LinEq1:  Iter=  8 NonCon=     1 RMS=1.48D-05 Max=4.18D-04 NDo=     1
 LinEq1:  Iter=  9 NonCon=     1 RMS=7.08D-06 Max=1.79D-04 NDo=     1
 LinEq1:  Iter= 10 NonCon=     1 RMS=4.01D-06 Max=1.21D-04 NDo=     1
 LinEq1:  Iter= 11 NonCon=     1 RMS=2.27D-06 Max=6.53D-05 NDo=     1
 LinEq1:  Iter= 12 NonCon=     1 RMS=9.69D-07 Max=2.42D-05 NDo=     1
 LinEq1:  Iter= 13 NonCon=     1 RMS=3.87D-07 Max=1.23D-05 NDo=     1
 LinEq1:  Iter= 14 NonCon=     1 RMS=1.42D-07 Max=5.32D-06 NDo=     1
 LinEq1:  Iter= 15 NonCon=     1 RMS=6.24D-08 Max=1.65D-06 NDo=     1
 LinEq1:  Iter= 16 NonCon=     1 RMS=3.47D-08 Max=1.36D-06 NDo=     1
 LinEq1:  Iter= 17 NonCon=     1 RMS=1.32D-08 Max=3.67D-07 NDo=     1
 LinEq1:  Iter= 18 NonCon=     1 RMS=6.18D-09 Max=1.17D-07 NDo=     1
 LinEq1:  Iter= 19 NonCon=     1 RMS=2.36D-09 Max=7.92D-08 NDo=     1
 LinEq1:  Iter= 20 NonCon=     1 RMS=7.75D-10 Max=1.26D-08 NDo=     1
 LinEq1:  Iter= 21 NonCon=     1 RMS=3.62D-10 Max=8.86D-09 NDo=     1
 LinEq1:  Iter= 22 NonCon=     1 RMS=1.20D-10 Max=3.83D-09 NDo=     1
 LinEq1:  Iter= 23 NonCon=     0 RMS=2.68D-11 Max=5.97D-10 NDo=     1
 Linear equations converged to 1.000D-10 1.000D-09 after    23 iterations.
 PCM Corrected Linear-Response - Equilibrium solvation:
 Corrected transition energy               =    2.9237          eV
 Total energy after correction             = -633.209549893     a.u.
 NEqPCM:  Using non-equilibrium solvation (IEInf=1, Eps=   7.4257, EpsInf=   1.9740)
 Inv3:  Mode=1 IEnd=    13230000.
 Iteration    1 A*A^-1 deviation from unit magnitude is 3.00D-15 for    190.
 Iteration    1 A*A^-1 deviation from orthogonality  is 2.31D-15 for   2018    785.
 Iteration    1 A^-1*A deviation from unit magnitude is 3.22D-15 for    762.
 Iteration    1 A^-1*A deviation from orthogonality  is 2.11D-15 for   1908     89.
 NEqSol: Computing the dynamic-inertial partition of the PCM polarization charges.
 End of Minotr F.D. properties file   721 does not exist.
 End of Minotr F.D. properties file   722 does not exist.
 End of Minotr F.D. properties file   788 does not exist.
 Leave Link 1002 at Fri Jan 23 16:57:47 2026, MaxMem=  2147483648 cpu:            1891.5 elap:             119.0
 (Enter /data/home/wyx/g16/l601.exe)
 Copying SCF densities to generalized density rwf, IOpCl= 0 IROHF=0.

 **********************************************************************

            Population analysis using the CI density.

 **********************************************************************

 Orbital symmetries:
       Occupied  (A) (A) (A) (A) (A) (A) (A) (A) (A) (A) (A) (A)
                 (A) (A) (A) (A) (A) (A) (A) (A) (A) (A) (A) (A)
                 (A) (A) (A) (A) (A) (A) (A) (A) (A) (A) (A) (A)
                 (A) (A) (A) (A) (A) (A) (A) (A) (A) (A) (A) (A)
                 (A) (A) (A) (A)
       Virtual   (A) (A) (A) (A) (A) (A) (A) (A) (A) (A) (A) (A)
                 (A) (A) (A) (A) (A) (A) (A) (A) (A) (A) (A) (A)
                 (A) (A) (A) (A) (A) (A) (A) (A) (A) (A) (A) (A)
                 (A) (A) (A) (A) (A) (A) (A) (A) (A) (A) (A) (A)
                 (A) (A) (A) (A) (A) (A) (A) (A) (A) (A) (A) (A)
                 (A) (A) (A) (A) (A) (A) (A) (A) (A) (A) (A) (A)
                 (A) (A) (A) (A) (A) (A) (A) (A) (A) (A) (A) (A)
                 (A) (A) (A) (A) (A) (A) (A) (A) (A) (A) (A) (A)
                 (A) (A) (A) (A) (A) (A) (A) (A) (A) (A) (A) (A)
                 (A) (A) (A) (A) (A) (A) (A) (A) (A) (A) (A) (A)
                 (A) (A) (A) (A) (A) (A) (A) (A) (A) (A) (A) (A)
                 (A) (A) (A) (A) (A) (A) (A) (A) (A) (A) (A) (A)
                 (A) (A) (A) (A) (A) (A) (A) (A) (A) (A) (A) (A)
                 (A) (A) (A) (A) (A) (A) (A) (A) (A) (A) (A) (A)
                 (A) (A) (A) (A) (A) (A) (A) (A) (A) (A) (A) (A)
                 (A) (A) (A) (A) (A) (A) (A) (A) (A) (A) (A) (A)
                 (A) (A) (A) (A) (A) (A) (A) (A) (A) (A) (A) (A)
                 (A) (A) (A) (A) (A) (A) (A) (A) (A) (A) (A) (A)
                 (A) (A) (A) (A) (A) (A) (A) (A) (A) (A) (A) (A)
                 (A) (A) (A) (A) (A) (A) (A) (A) (A) (A) (A) (A)
                 (A) (A) (A) (A) (A) (A) (A) (A) (A) (A) (A) (A)
                 (A) (A) (A) (A) (A) (A) (A) (A) (A) (A) (A) (A)
                 (A) (A) (A) (A) (A) (A) (A) (A) (A) (A) (A) (A)
                 (A) (A) (A) (A) (A) (A) (A) (A) (A) (A) (A) (A)
                 (A) (A) (A) (A) (A) (A) (A) (A) (A) (A) (A) (A)
                 (A) (A) (A) (A)
 The electronic state is 1-A.
 Alpha  occ. eigenvalues --  -19.17799 -19.16842 -14.44993 -10.33368 -10.33086
 Alpha  occ. eigenvalues --  -10.32784 -10.32453 -10.26384 -10.25536 -10.25243
 Alpha  occ. eigenvalues --  -10.24794 -10.24414 -10.24224 -10.23709  -1.11237
 Alpha  occ. eigenvalues --   -1.10583  -1.08666  -0.91451  -0.90553  -0.83946
 Alpha  occ. eigenvalues --   -0.82687  -0.81662  -0.78492  -0.73797  -0.72363
 Alpha  occ. eigenvalues --   -0.68717  -0.61521  -0.58291  -0.57080  -0.55143
 Alpha  occ. eigenvalues --   -0.54652  -0.53992  -0.52448  -0.51729  -0.50866
 Alpha  occ. eigenvalues --   -0.49683  -0.49503  -0.49225  -0.48710  -0.47972
 Alpha  occ. eigenvalues --   -0.47352  -0.45309  -0.45073  -0.44121  -0.43365
 Alpha  occ. eigenvalues --   -0.42090  -0.42024  -0.41391  -0.32542  -0.32150
 Alpha  occ. eigenvalues --   -0.31098  -0.24927
 Alpha virt. eigenvalues --   -0.03522   0.02497   0.06193   0.07992   0.08352
 Alpha virt. eigenvalues --    0.09639   0.10692   0.11351   0.12469   0.13329
 Alpha virt. eigenvalues --    0.13805   0.14798   0.15514   0.16392   0.16929
 Alpha virt. eigenvalues --    0.17386   0.17794   0.18018   0.18537   0.19241
 Alpha virt. eigenvalues --    0.19774   0.21887   0.22621   0.23325   0.23823
 Alpha virt. eigenvalues --    0.24056   0.24668   0.25595   0.26327   0.26708
 Alpha virt. eigenvalues --    0.27410   0.28030   0.28387   0.29619   0.30170
 Alpha virt. eigenvalues --    0.31478   0.31844   0.32206   0.33338   0.33956
 Alpha virt. eigenvalues --    0.34626   0.35628   0.36678   0.37413   0.38512
 Alpha virt. eigenvalues --    0.39600   0.40843   0.41319   0.41735   0.42398
 Alpha virt. eigenvalues --    0.43923   0.44851   0.45498   0.46141   0.46479
 Alpha virt. eigenvalues --    0.47250   0.47628   0.47790   0.48464   0.49131
 Alpha virt. eigenvalues --    0.49642   0.50486   0.51188   0.51226   0.51548
 Alpha virt. eigenvalues --    0.52210   0.52579   0.53206   0.53565   0.54168
 Alpha virt. eigenvalues --    0.54238   0.55157   0.55709   0.56523   0.58113
 Alpha virt. eigenvalues --    0.58349   0.59962   0.61034   0.61887   0.63130
 Alpha virt. eigenvalues --    0.64158   0.64869   0.66196   0.66961   0.67414
 Alpha virt. eigenvalues --    0.68693   0.69121   0.70385   0.70709   0.71927
 Alpha virt. eigenvalues --    0.72799   0.74899   0.75226   0.76118   0.77489
 Alpha virt. eigenvalues --    0.79000   0.80858   0.83536   0.86809   0.87519
 Alpha virt. eigenvalues --    0.91986   0.96121   1.02483   1.04317   1.21681
 Alpha virt. eigenvalues --    1.24067   1.27245   1.27991   1.28862   1.30080
 Alpha virt. eigenvalues --    1.31944   1.33210   1.34559   1.35152   1.36310
 Alpha virt. eigenvalues --    1.36911   1.37807   1.38392   1.38784   1.39375
 Alpha virt. eigenvalues --    1.39867   1.40012   1.40618   1.41323   1.42140
 Alpha virt. eigenvalues --    1.43188   1.43209   1.44153   1.45575   1.47101
 Alpha virt. eigenvalues --    1.48110   1.49314   1.49392   1.50124   1.50828
 Alpha virt. eigenvalues --    1.51345   1.52081   1.53024   1.55699   1.59039
 Alpha virt. eigenvalues --    1.59694   1.59872   1.60988   1.61679   1.62012
 Alpha virt. eigenvalues --    1.62538   1.62802   1.63230   1.64438   1.65555
 Alpha virt. eigenvalues --    1.66189   1.66917   1.67469   1.68045   1.68701
 Alpha virt. eigenvalues --    1.68999   1.69672   1.70305   1.70907   1.72460
 Alpha virt. eigenvalues --    1.74120   1.74504   1.75375   1.76370   1.78465
 Alpha virt. eigenvalues --    1.81511   1.82885   1.83645   1.85468   1.86380
 Alpha virt. eigenvalues --    1.86438   1.87794   1.88593   1.89144   1.90165
 Alpha virt. eigenvalues --    1.91245   1.94236   1.94930   1.98803   1.99721
 Alpha virt. eigenvalues --    2.01568   2.03722   2.05751   2.06794   2.09249
 Alpha virt. eigenvalues --    2.09791   2.11235   2.15715   2.17398   2.19439
 Alpha virt. eigenvalues --    2.20512   2.21126   2.22063   2.22881   2.26285
 Alpha virt. eigenvalues --    2.26648   2.27262   2.29066   2.30760   2.32069
 Alpha virt. eigenvalues --    2.33199   2.34306   2.36821   2.37550   2.38805
 Alpha virt. eigenvalues --    2.39450   2.40106   2.41262   2.42646   2.44955
 Alpha virt. eigenvalues --    2.45362   2.46990   2.48650   2.49266   2.51154
 Alpha virt. eigenvalues --    2.52328   2.53712   2.54383   2.56265   2.57169
 Alpha virt. eigenvalues --    2.58596   2.60791   2.61663   2.62197   2.63316
 Alpha virt. eigenvalues --    2.64629   2.65163   2.66506   2.67245   2.68356
 Alpha virt. eigenvalues --    2.71336   2.71719   2.73910   2.74426   2.75423
 Alpha virt. eigenvalues --    2.76295   2.77250   2.77885   2.78203   2.78811
 Alpha virt. eigenvalues --    2.80663   2.81153   2.83194   2.83616   2.85007
 Alpha virt. eigenvalues --    2.85469   2.86236   2.88560   2.88922   2.92126
 Alpha virt. eigenvalues --    2.97062   2.98376   3.01042   3.06971   3.10485
 Alpha virt. eigenvalues --    3.12055   3.13537   3.18186   3.19346   3.21351
 Alpha virt. eigenvalues --    3.22207   3.23038   3.24897   3.25919   3.26244
 Alpha virt. eigenvalues --    3.29418   3.30264   3.31953   3.34681   3.36459
 Alpha virt. eigenvalues --    3.38214   3.38563   3.38972   3.39230   3.41304
 Alpha virt. eigenvalues --    3.41784   3.43517   3.44568   3.47458   3.48003
 Alpha virt. eigenvalues --    3.49762   3.50270   3.56070   3.58233   3.59663
 Alpha virt. eigenvalues --    3.61388   3.90850   4.00689   4.32749   4.35804
 Alpha virt. eigenvalues --   21.68645  21.80772  22.07570  22.09853  22.11241
 Alpha virt. eigenvalues --   22.14397  22.14783  22.16983  22.18667  22.24891
 Alpha virt. eigenvalues --   22.26794  31.91031  43.64080  43.66894
          Condensed to atoms (all electrons):
               1          2          3          4          5          6
     1  O    7.985247   0.000000  -0.000214   0.000020   0.025897   0.013972
     2  O    0.000000   8.006638   0.000155   0.000016  -0.200398   0.001340
     3  N   -0.000214   0.000155   6.169306   0.362948  -0.087938   0.349232
     4  H    0.000020   0.000016   0.362948   0.406367   0.015978  -0.042830
     5  C    0.025897  -0.200398  -0.087938   0.015978   7.401451  -0.030465
     6  C    0.013972   0.001340   0.349232  -0.042830  -0.030465   5.946527
     7  C   -0.000311  -0.041906   0.434847  -0.036301   0.300594  -0.228745
     8  C   -0.000876   0.683079   0.003860  -0.000753  -0.431306   0.039796
     9  C    0.004224   0.029464   0.006785  -0.000609  -0.769745  -0.090327
    10  H    0.005060  -0.000142  -0.001180   0.000022  -0.078938   0.020905
    11  H    0.009627  -0.000139   0.000836   0.000053  -0.049177  -0.012165
    12  C   -0.262190  -0.003118  -0.051649   0.014523   0.034060  -0.215239
    13  C    0.703102  -0.000010   0.000252   0.000758   0.101218   0.071919
    14  C   -0.000008  -0.009452  -0.036761  -0.010916  -0.075592   0.012299
    15  H   -0.000000   0.004227   0.004353   0.002588   0.024618   0.006351
    16  H    0.000000  -0.000646  -0.000606   0.000794  -0.001084  -0.000936
    17  H    0.000000   0.002672  -0.002368   0.000932  -0.007668  -0.000798
    18  C    0.000613  -0.099806  -0.000442   0.000024  -0.253820  -0.000661
    19  H    0.000006   0.008624   0.000007  -0.000001   0.028472   0.000009
    20  H    0.000259   0.004391   0.000081   0.000001   0.046878  -0.001186
    21  H   -0.000114   0.002129   0.000007  -0.000001  -0.002922   0.000071
    22  C   -0.109858   0.000000   0.000041   0.000125   0.004347  -0.028211
    23  H    0.002006   0.000000  -0.000005  -0.000010  -0.000065   0.011905
    24  H    0.005408  -0.000000   0.000171  -0.000060  -0.000921  -0.021102
    25  H    0.008483  -0.000000   0.000024  -0.000003  -0.000098  -0.001310
    26  C    0.000481   0.000011  -0.029497  -0.007644   0.000334   0.179041
    27  H   -0.000058   0.000000  -0.003671   0.000532   0.000155  -0.036065
    28  H   -0.000388   0.000000   0.001938   0.000692   0.000051  -0.075433
    29  H    0.000015   0.000000   0.002760   0.002616  -0.000325  -0.054217
               7          8          9         10         11         12
     1  O   -0.000311  -0.000876   0.004224   0.005060   0.009627  -0.262190
     2  O   -0.041906   0.683079   0.029464  -0.000142  -0.000139  -0.003118
     3  N    0.434847   0.003860   0.006785  -0.001180   0.000836  -0.051649
     4  H   -0.036301  -0.000753  -0.000609   0.000022   0.000053   0.014523
     5  C    0.300594  -0.431306  -0.769745  -0.078938  -0.049177   0.034060
     6  C   -0.228745   0.039796  -0.090327   0.020905  -0.012165  -0.215239
     7  C    5.787082  -0.293505  -0.277474   0.008109  -0.004828   0.086253
     8  C   -0.293505   5.527786   0.287422  -0.004261   0.001213  -0.059074
     9  C   -0.277474   0.287422   6.712812   0.477075   0.381860  -0.208127
    10  H    0.008109  -0.004261   0.477075   0.482739  -0.033474  -0.081460
    11  H   -0.004828   0.001213   0.381860  -0.033474   0.498404   0.002614
    12  C    0.086253  -0.059074  -0.208127  -0.081460   0.002614   7.629834
    13  C    0.021490  -0.010873  -0.246648   0.001368   0.000287  -0.513292
    14  C    0.286597  -0.031430   0.003439   0.000009  -0.000119   0.002607
    15  H   -0.087325   0.006178   0.000925   0.000001   0.000022  -0.001849
    16  H   -0.037569  -0.004674  -0.000470  -0.000038   0.000142   0.000667
    17  H   -0.027414  -0.000835   0.001299   0.000054  -0.000057  -0.000333
    18  C   -0.001314   0.324532  -0.002767   0.003377  -0.013662  -0.005809
    19  H    0.000699  -0.057046  -0.005553   0.000665  -0.000177  -0.000679
    20  H    0.005117  -0.075324  -0.003089  -0.006822  -0.000318   0.007448
    21  H    0.000024  -0.031064  -0.009167  -0.000539   0.001301   0.000511
    22  C    0.000154  -0.000048   0.008591  -0.001311   0.003720  -0.275551
    23  H    0.000002   0.000003  -0.003612  -0.000083   0.000088  -0.013696
    24  H    0.000001   0.000016   0.001813   0.000076  -0.000241   0.072551
    25  H    0.000000   0.000000   0.002002  -0.000059  -0.000144   0.020309
    26  C    0.004709   0.000771   0.030624   0.000066  -0.000766  -0.077526
    27  H   -0.000307  -0.000011  -0.002451   0.000033   0.000018  -0.012268
    28  H   -0.000501  -0.000009   0.002865  -0.000010  -0.000067  -0.001124
    29  H    0.003423   0.000003  -0.000591  -0.000001   0.000032   0.023081
              13         14         15         16         17         18
     1  O    0.703102  -0.000008  -0.000000   0.000000   0.000000   0.000613
     2  O   -0.000010  -0.009452   0.004227  -0.000646   0.002672  -0.099806
     3  N    0.000252  -0.036761   0.004353  -0.000606  -0.002368  -0.000442
     4  H    0.000758  -0.010916   0.002588   0.000794   0.000932   0.000024
     5  C    0.101218  -0.075592   0.024618  -0.001084  -0.007668  -0.253820
     6  C    0.071919   0.012299   0.006351  -0.000936  -0.000798  -0.000661
     7  C    0.021490   0.286597  -0.087325  -0.037569  -0.027414  -0.001314
     8  C   -0.010873  -0.031430   0.006178  -0.004674  -0.000835   0.324532
     9  C   -0.246648   0.003439   0.000925  -0.000470   0.001299  -0.002767
    10  H    0.001368   0.000009   0.000001  -0.000038   0.000054   0.003377
    11  H    0.000287  -0.000119   0.000022   0.000142  -0.000057  -0.013662
    12  C   -0.513292   0.002607  -0.001849   0.000667  -0.000333  -0.005809
    13  C    5.657841   0.000060  -0.000041   0.000007  -0.000019   0.001263
    14  C    0.000060   5.011666   0.384036   0.419361   0.412816   0.000565
    15  H   -0.000041   0.384036   0.589525  -0.027275  -0.025511   0.000249
    16  H    0.000007   0.419361  -0.027275   0.524802  -0.030542  -0.000046
    17  H   -0.000019   0.412816  -0.025511  -0.030542   0.516503   0.000119
    18  C    0.001263   0.000565   0.000249  -0.000046   0.000119   5.336355
    19  H   -0.000038   0.000013  -0.000006  -0.000047  -0.000001   0.390219
    20  H    0.001180   0.000150  -0.000016  -0.000039  -0.000000   0.373734
    21  H    0.000037  -0.000218  -0.000005   0.000043  -0.000058   0.398338
    22  C    0.286841   0.000006   0.000001   0.000000  -0.000000   0.000015
    23  H   -0.022408   0.000000  -0.000000   0.000000  -0.000000  -0.000003
    24  H   -0.107330   0.000002   0.000000   0.000000   0.000000  -0.000001
    25  H   -0.033025   0.000000   0.000000  -0.000000   0.000000   0.000004
    26  C   -0.050899  -0.000313   0.000441  -0.000110   0.000029   0.000032
    27  H    0.005396  -0.000077  -0.000008   0.000010  -0.000014  -0.000002
    28  H    0.000861  -0.000004  -0.000005  -0.000007   0.000004   0.000003
    29  H   -0.000791   0.000033   0.000065  -0.000010   0.000003   0.000000
              19         20         21         22         23         24
     1  O    0.000006   0.000259  -0.000114  -0.109858   0.002006   0.005408
     2  O    0.008624   0.004391   0.002129   0.000000   0.000000  -0.000000
     3  N    0.000007   0.000081   0.000007   0.000041  -0.000005   0.000171
     4  H   -0.000001   0.000001  -0.000001   0.000125  -0.000010  -0.000060
     5  C    0.028472   0.046878  -0.002922   0.004347  -0.000065  -0.000921
     6  C    0.000009  -0.001186   0.000071  -0.028211   0.011905  -0.021102
     7  C    0.000699   0.005117   0.000024   0.000154   0.000002   0.000001
     8  C   -0.057046  -0.075324  -0.031064  -0.000048   0.000003   0.000016
     9  C   -0.005553  -0.003089  -0.009167   0.008591  -0.003612   0.001813
    10  H    0.000665  -0.006822  -0.000539  -0.001311  -0.000083   0.000076
    11  H   -0.000177  -0.000318   0.001301   0.003720   0.000088  -0.000241
    12  C   -0.000679   0.007448   0.000511  -0.275551  -0.013696   0.072551
    13  C   -0.000038   0.001180   0.000037   0.286841  -0.022408  -0.107330
    14  C    0.000013   0.000150  -0.000218   0.000006   0.000000   0.000002
    15  H   -0.000006  -0.000016  -0.000005   0.000001  -0.000000   0.000000
    16  H   -0.000047  -0.000039   0.000043   0.000000   0.000000   0.000000
    17  H   -0.000001  -0.000000  -0.000058  -0.000000  -0.000000   0.000000
    18  C    0.390219   0.373734   0.398338   0.000015  -0.000003  -0.000001
    19  H    0.524903  -0.023628  -0.016897  -0.000001  -0.000000  -0.000000
    20  H   -0.023628   0.548337  -0.023677   0.000037  -0.000000  -0.000001
    21  H   -0.016897  -0.023677   0.510739  -0.000002   0.000000   0.000000
    22  C   -0.000001   0.000037  -0.000002   5.468916   0.398466   0.392583
    23  H   -0.000000  -0.000000   0.000000   0.398466   0.509994  -0.027750
    24  H   -0.000000  -0.000001   0.000000   0.392583  -0.027750   0.557422
    25  H    0.000000  -0.000000  -0.000001   0.370073  -0.012191  -0.021947
    26  C    0.000001  -0.000017  -0.000003  -0.036906  -0.009498   0.014511
    27  H   -0.000000   0.000000   0.000000  -0.010100   0.002160  -0.002582
    28  H    0.000000   0.000000  -0.000000   0.001296  -0.002704  -0.006189
    29  H    0.000000  -0.000000  -0.000000   0.001989   0.000004   0.000641
              25         26         27         28         29
     1  O    0.008483   0.000481  -0.000058  -0.000388   0.000015
     2  O   -0.000000   0.000011   0.000000   0.000000   0.000000
     3  N    0.000024  -0.029497  -0.003671   0.001938   0.002760
     4  H   -0.000003  -0.007644   0.000532   0.000692   0.002616
     5  C   -0.000098   0.000334   0.000155   0.000051  -0.000325
     6  C   -0.001310   0.179041  -0.036065  -0.075433  -0.054217
     7  C    0.000000   0.004709  -0.000307  -0.000501   0.003423
     8  C    0.000000   0.000771  -0.000011  -0.000009   0.000003
     9  C    0.002002   0.030624  -0.002451   0.002865  -0.000591
    10  H   -0.000059   0.000066   0.000033  -0.000010  -0.000001
    11  H   -0.000144  -0.000766   0.000018  -0.000067   0.000032
    12  C    0.020309  -0.077526  -0.012268  -0.001124   0.023081
    13  C   -0.033025  -0.050899   0.005396   0.000861  -0.000791
    14  C    0.000000  -0.000313  -0.000077  -0.000004   0.000033
    15  H    0.000000   0.000441  -0.000008  -0.000005   0.000065
    16  H   -0.000000  -0.000110   0.000010  -0.000007  -0.000010
    17  H    0.000000   0.000029  -0.000014   0.000004   0.000003
    18  C    0.000004   0.000032  -0.000002   0.000003   0.000000
    19  H    0.000000   0.000001  -0.000000   0.000000   0.000000
    20  H   -0.000000  -0.000017   0.000000   0.000000  -0.000000
    21  H   -0.000001  -0.000003   0.000000  -0.000000  -0.000000
    22  C    0.370073  -0.036906  -0.010100   0.001296   0.001989
    23  H   -0.012191  -0.009498   0.002160  -0.002704   0.000004
    24  H   -0.021947   0.014511  -0.002582  -0.006189   0.000641
    25  H    0.509411   0.002242  -0.000364   0.001036  -0.000022
    26  C    0.002242   5.217934   0.419056   0.445425   0.390011
    27  H   -0.000364   0.419056   0.517377  -0.039138  -0.019544
    28  H    0.001036   0.445425  -0.039138   0.525041  -0.021449
    29  H   -0.000022   0.390011  -0.019544  -0.021449   0.526862
 Mulliken charges:
               1
     1  O   -0.390403
     2  O   -0.387129
     3  N   -0.123275
     4  H    0.290141
     5  C    0.006409
     6  C    0.186325
     7  C    0.098398
     8  C    0.126432
     9  C   -0.330571
    10  H    0.208758
    11  H    0.215119
    12  C   -0.111474
    13  C    0.131493
    14  C   -0.368769
    15  H    0.118461
    16  H    0.158273
    17  H    0.161187
    18  C   -0.451107
    19  H    0.150455
    20  H    0.146506
    21  H    0.171468
    22  C   -0.475212
    23  H    0.167401
    24  H    0.142927
    25  H    0.155580
    26  C   -0.492541
    27  H    0.181925
    28  H    0.167816
    29  H    0.145411
 Sum of Mulliken charges =  -0.00000
 Mulliken charges with hydrogens summed into heavy atoms:
               1
     1  O   -0.390403
     2  O   -0.387129
     3  N    0.166866
     5  C    0.006409
     6  C    0.186325
     7  C    0.098398
     8  C    0.126432
     9  C    0.093306
    12  C   -0.111474
    13  C    0.131493
    14  C    0.069152
    18  C    0.017321
    22  C   -0.009305
    26  C    0.002610
 Electronic spatial extent (au):  <R**2>=           3219.2451
 Charge=              0.0000 electrons
 Dipole moment (field-independent basis, Debye):
    X=              3.3729    Y=              7.6145    Z=              0.1271  Tot=              8.3290
 Quadrupole moment (field-independent basis, Debye-Ang):
   XX=           -104.7484   YY=            -78.7724   ZZ=            -84.9169
   XY=             12.5278   XZ=              3.4952   YZ=             -2.2205
 Traceless Quadrupole moment (field-independent basis, Debye-Ang):
   XX=            -15.2691   YY=             10.7068   ZZ=              4.5623
   XY=             12.5278   XZ=              3.4952   YZ=             -2.2205
 Octapole moment (field-independent basis, Debye-Ang**2):
  XXX=            106.2230  YYY=             67.6745  ZZZ=              0.2035  XYY=            -37.4640
  XXY=             33.2761  XXZ=             -2.9594  XZZ=             -0.7087  YZZ=             -1.8982
  YYZ=              4.5655  XYZ=             -5.5624
 Hexadecapole moment (field-independent basis, Debye-Ang**3):
 XXXX=          -3158.4258 YYYY=          -1310.7494 ZZZZ=           -139.7200 XXXY=             33.0631
 XXXZ=             35.1363 YYYX=             88.8308 YYYZ=            -18.5310 ZZZX=             -4.0416
 ZZZY=              2.2292 XXYY=           -718.6797 XXZZ=           -486.2676 YYZZ=           -247.4964
 XXYZ=            -11.9268 YYXZ=             11.2975 ZZXY=              0.4503
 N-N= 8.980488118512D+02 E-N=-3.271555349931D+03  KE= 6.306035900969D+02
 No NMR shielding tensors so no spin-rotation constants.
 Leave Link  601 at Fri Jan 23 16:57:48 2026, MaxMem=  2147483648 cpu:               1.8 elap:               0.1
 (Enter /data/home/wyx/g16/l9999.exe)
 Electronic transition elements 
                 1             2             3             4             5 
      1  -0.633213D+03 -0.633174D+03 -0.633168D+03 -0.633141D+03 -0.633125D+03
      2   0.158631D+01  0.335754D-01 -0.997591D-01 -0.384590D+00  0.448555D+00
      3   0.380934D+00 -0.383118D-01  0.515084D-01  0.167160D+01 -0.149974D+01
      4   0.128365D+00  0.378656D-01 -0.328726D-01 -0.805921D-01  0.480581D-01
      5  -0.157628D+00 -0.529375D-02  0.135283D-01  0.580577D-01 -0.833196D-01
      6  -0.410570D-01  0.564602D-02 -0.560856D-02 -0.282473D+00  0.281698D+00
      7  -0.125029D-01 -0.216702D-02  0.147521D-02  0.107039D-01 -0.988988D-02
      8  -0.136255D+00  0.769144D+00  0.521624D+00 -0.166047D-01  0.770101D-01
      9  -0.529479D-01  0.151248D+00 -0.838001D+00  0.387668D-01 -0.633709D-01
     10   0.147411D+01  0.497370D-01 -0.165118D+00 -0.691783D-01  0.284538D+00
     11  -0.154500D+00  0.271201D-01 -0.840415D-02  0.118326D+01 -0.512370D+00
     12   0.236642D+00 -0.530118D-02 -0.390189D-01 -0.133211D+00  0.354044D+00
     13  -0.115366D-01 -0.159227D-01  0.281939D-01 -0.210971D-01  0.344332D-01
     14   0.440600D+00  0.204899D-02 -0.739031D-01  0.449029D+00 -0.587531D-01
     15  -0.317099D-01 -0.128973D-01  0.524509D-01  0.640603D-01 -0.467453D-02
     16   0.233278D-01  0.726970D-01  0.225787D-01  0.500087D-01  0.509629D-02
                 6 
      1  -0.633107D+03
      2   0.590382D-01
      3  -0.181539D+00
      4  -0.307058D-01
      5  -0.127617D-01
      6   0.370071D-01
      7   0.267071D-01
      8  -0.617847D-01
      9  -0.797555D-02
     10  -0.519591D-01
     11   0.925866D-01
     12   0.106451D+00
     13  -0.867017D-01
     14  -0.684643D-02
     15   0.403274D-01
     16  -0.133698D+00
 1\1\GINC-CN012\SP\RCAM-B3LYP TD-FC\TZVP\C11H15N1O2\WYX\23-Jan-2026\0\\
 #p CAM-B3LYP TZVP em=gd3bj td(nstates=6,root=1) scrf=(Solvent=TetraHyd
 roFuran,CorrectedLR,NonEquilibrium=Save) Geom=Check Guess=Read\\Title 
 Card Required\\0,1\O,0,2.840355,-1.575566,0.006876\O,0,-3.430456,-1.65
 648,-0.200573\N,0,-0.673261,1.51926,-0.136562\H,0,-0.985797,2.480907,-
 0.184817\C,0,-1.251081,-0.76442,-0.195008\C,0,0.673027,1.344959,-0.001
 164\C,0,-1.646543,0.587748,-0.223477\C,0,-2.208444,-1.851824,-0.20537\
 C,0,0.187435,-1.075242,-0.146137\H,0,0.389393,-1.869159,0.584973\H,0,0
 .483471,-1.587317,-1.083615\C,0,1.146336,0.026389,0.056495\C,0,2.51890
 9,-0.404196,0.25469\C,0,-3.037078,1.109507,-0.363395\H,0,-3.030155,2.1
 98859,-0.420899\H,0,-3.51566,0.716076,-1.258921\H,0,-3.660503,0.807978
 ,0.476504\C,0,-1.700512,-3.276547,-0.182859\H,0,-2.493575,-3.925694,-0
 .546499\H,0,-0.806587,-3.431445,-0.784002\H,0,-1.464503,-3.572706,0.84
 2713\C,0,3.575614,0.523342,0.805827\H,0,4.079,1.058186,-0.002651\H,0,3
 .181872,1.256761,1.504771\H,0,4.320435,-0.088933,1.310142\C,0,1.471434
 ,2.607239,0.023709\H,0,1.768788,2.895985,1.034213\H,0,2.376132,2.51428
 ,-0.572765\H,0,0.89194,3.43205,-0.392194\\Version=ES64L-G16RevA.03\Sta
 te=1-A\HF=-633.3169921\RMSD=4.633e-09\Dipole=0.2372959,3.2675599,0.068
 5238\Quadrupole=-15.5018394,11.6715218,3.8303176,1.1798141,0.8825409,-
 0.5752451\PG=C01 [X(C11H15N1O2)]\\@


 "MATHEMATICS IS THE ART OF GIVING THE SAME NAME
 TO DIFFERENT THINGS."
                    - H. POINCARE
 Job cpu time:       0 days  2 hours 40 minutes 10.4 seconds.
 Elapsed time:       0 days  0 hours 10 minutes  3.3 seconds.
 File lengths (MBytes):  RWF=    734 Int=      0 D2E=      0 Chk=     67 Scr=      1
 Normal termination of Gaussian 16 at Fri Jan 23 16:57:49 2026.
