 Entering Gaussian System, Link 0=g16
 Input=DDL-S1-cLR-gs-3.gjf
 Output=DDL-S1-cLR-gs-3.log
 Initial command:
 /data/home/wyx/g16/l1.exe "/scr/tmp/wyx/13106/Gau-1984514.inp" -scrdir="/scr/tmp/wyx/13106/"
 Entering Link 1 = /data/home/wyx/g16/l1.exe PID=   1984515.
  
 Copyright (c) 1988,1990,1992,1993,1995,1998,2003,2009,2016,
            Gaussian, Inc.  All Rights Reserved.
  
 This is part of the Gaussian(R) 16 program.  It is based on
 the Gaussian(R) 09 system (copyright 2009, Gaussian, Inc.),
 the Gaussian(R) 03 system (copyright 2003, Gaussian, Inc.),
 the Gaussian(R) 98 system (copyright 1998, Gaussian, Inc.),
 the Gaussian(R) 94 system (copyright 1995, Gaussian, Inc.),
 the Gaussian 92(TM) system (copyright 1992, Gaussian, Inc.),
 the Gaussian 90(TM) system (copyright 1990, Gaussian, Inc.),
 the Gaussian 88(TM) system (copyright 1988, Gaussian, Inc.),
 the Gaussian 86(TM) system (copyright 1986, Carnegie Mellon
 University), and the Gaussian 82(TM) system (copyright 1983,
 Carnegie Mellon University). Gaussian is a federally registered
 trademark of Gaussian, Inc.
  
 This software contains proprietary and confidential information,
 including trade secrets, belonging to Gaussian, Inc.
  
 This software is provided under written license and may be
 used, copied, transmitted, or stored only in accord with that
 written license.
  
 The following legend is applicable only to US Government
 contracts under FAR:
  
                    RESTRICTED RIGHTS LEGEND
  
 Use, reproduction and disclosure by the US Government is
 subject to restrictions as set forth in subparagraphs (a)
 and (c) of the Commercial Computer Software - Restricted
 Rights clause in FAR 52.227-19.
  
 Gaussian, Inc.
 340 Quinnipiac St., Bldg. 40, Wallingford CT 06492
  
  
 ---------------------------------------------------------------
 Warning -- This program may not be used in any manner that
 competes with the business of Gaussian, Inc. or will provide
 assistance to any competitor of Gaussian, Inc.  The licensee
 of this program is prohibited from giving any competitor of
 Gaussian, Inc. access to this program.  By using this program,
 the user acknowledges that Gaussian, Inc. is engaged in the
 business of creating and licensing software in the field of
 computational chemistry and represents and warrants to the
 licensee that it is not a competitor of Gaussian, Inc. and that
 it will not use this program in any manner prohibited above.
 ---------------------------------------------------------------
  

 Cite this work as:
 Gaussian 16, Revision A.03,
 M. J. Frisch, G. W. Trucks, H. B. Schlegel, G. E. Scuseria, 
 M. A. Robb, J. R. Cheeseman, G. Scalmani, V. Barone, 
 G. A. Petersson, H. Nakatsuji, X. Li, M. Caricato, A. V. Marenich, 
 J. Bloino, B. G. Janesko, R. Gomperts, B. Mennucci, H. P. Hratchian, 
 J. V. Ortiz, A. F. Izmaylov, J. L. Sonnenberg, D. Williams-Young, 
 F. Ding, F. Lipparini, F. Egidi, J. Goings, B. Peng, A. Petrone, 
 T. Henderson, D. Ranasinghe, V. G. Zakrzewski, J. Gao, N. Rega, 
 G. Zheng, W. Liang, M. Hada, M. Ehara, K. Toyota, R. Fukuda, 
 J. Hasegawa, M. Ishida, T. Nakajima, Y. Honda, O. Kitao, H. Nakai, 
 T. Vreven, K. Throssell, J. A. Montgomery, Jr., J. E. Peralta, 
 F. Ogliaro, M. J. Bearpark, J. J. Heyd, E. N. Brothers, K. N. Kudin, 
 V. N. Staroverov, T. A. Keith, R. Kobayashi, J. Normand, 
 K. Raghavachari, A. P. Rendell, J. C. Burant, S. S. Iyengar, 
 J. Tomasi, M. Cossi, J. M. Millam, M. Klene, C. Adamo, R. Cammi, 
 J. W. Ochterski, R. L. Martin, K. Morokuma, O. Farkas, 
 J. B. Foresman, and D. J. Fox, Gaussian, Inc., Wallingford CT, 2016.
 
 ******************************************
 Gaussian 16:  ES64L-G16RevA.03 25-Dec-2016
                23-Jan-2026 
 ******************************************
 %nprocshared=16
 Will use up to   16 processors via shared memory.
 %mem=16GB
 %oldchk=DDL-S1-cLR-3.chk
 %chk=DDL-S1-cLR-gs-3.chk
 Copying data from "DDL-S1-cLR-3.chk" to current chk file "DDL-S1-cLR-gs-3.chk"
 IOpt=  2 FromEx=T IUOpen= 4 IOptOp= 5 NList=   0 IFRang= 0 IUIn= 4 IUOut= 2.
 ----------------------------------------------------------------------
 #p CAM-B3LYP TZVP em=gd3bj scrf=(Solvent=TetraHydroFuran,NonEquilibriu
 m=Read) Geom=Check Guess=Read
 ----------------------------------------------------------------------
 1/29=2,38=1,172=1/1;
 2/12=2,40=1/2;
 3/5=19,7=101,11=2,14=-4,25=1,30=1,70=6002201,72=20,74=-40,116=-2,124=41/1,2,3;
 4/5=1/1;
 5/5=2,38=6,53=20/2;
 6/7=2,8=2,9=2,10=2,28=1/1;
 99/5=1,9=1/99;
 Leave Link    1 at Fri Jan 23 22:33:38 2026, MaxMem=  2147483648 cpu:               0.8 elap:               0.1
 (Enter /data/home/wyx/g16/l101.exe)
 -------------------
 Title Card Required
 -------------------
 Structure from the checkpoint file:  "DDL-S1-cLR-gs-3.chk"
 Charge =  0 Multiplicity = 1
 Z-Matrix found in chk file.
 O,0,2.839691,-1.573384,0.037849
 O,0,-3.429203,-1.648793,-0.14129
 N,0,-0.664952,1.517747,-0.185688
 H,0,-0.976814,2.478348,-0.235218
 C,0,-1.248428,-0.762655,-0.201081
 C,0,0.678995,1.334892,-0.023667
 C,0,-1.63861,0.578642,-0.238255
 C,0,-2.21189,-1.846455,-0.182765
 C,0,0.194308,-1.082668,-0.190208
 H,0,0.406434,-1.888397,0.521548
 H,0,0.474092,-1.562221,-1.146582
 C,0,1.147434,0.025849,0.041424
 C,0,2.517919,-0.401916,0.269951
 C,0,-3.027428,1.105125,-0.349093
 H,0,-3.024235,2.189528,-0.454009
 H,0,-3.543492,0.675929,-1.203654
 H,0,-3.619066,0.845626,0.525216
 C,0,-1.708565,-3.268057,-0.185138
 H,0,-2.516063,-3.926818,-0.488508
 H,0,-0.858139,-3.42479,-0.842902
 H,0,-1.398197,-3.560573,0.818638
 C,0,3.566365,0.527674,0.831886
 H,0,4.0722,1.06698,0.028207
 H,0,3.163894,1.257182,1.529871
 H,0,4.31009,-0.083283,1.33901
 C,0,1.469592,2.600083,0.025453
 H,0,1.716045,2.895922,1.046065
 H,0,2.400273,2.510419,-0.526187
 H,0,0.90775,3.420064,-0.420871
 Recover connectivity data from disk.
 ITRead=  0  0  0  0  0  0  0  0  0  0  0  0  0  0  0  0  0  0  0  0
 ITRead=  0  0  0  0  0  0  0  0  0
 MicOpt= -1 -1 -1 -1 -1 -1 -1 -1 -1 -1 -1 -1 -1 -1 -1 -1 -1 -1 -1 -1
 MicOpt= -1 -1 -1 -1 -1 -1 -1 -1 -1
 NAtoms=     29 NQM=       29 NQMF=       0 NMMI=      0 NMMIF=      0
                NMic=       0 NMicF=      0.
                    Isotopes and Nuclear Properties:
 (Nuclear quadrupole moments (NQMom) in fm**2, nuclear magnetic moments (NMagM)
  in nuclear magnetons)

  Atom         1           2           3           4           5           6           7           8           9          10
 IAtWgt=          16          16          14           1          12          12          12          12          12           1
 AtmWgt=  15.9949146  15.9949146  14.0030740   1.0078250  12.0000000  12.0000000  12.0000000  12.0000000  12.0000000   1.0078250
 NucSpn=           0           0           2           1           0           0           0           0           0           1
 AtZEff=   5.6000000   5.6000000   4.5500000   1.0000000   3.6000000   3.6000000   3.6000000   3.6000000   3.6000000   1.0000000
 NQMom=    0.0000000   0.0000000   2.0440000   0.0000000   0.0000000   0.0000000   0.0000000   0.0000000   0.0000000   0.0000000
 NMagM=    0.0000000   0.0000000   0.4037610   2.7928460   0.0000000   0.0000000   0.0000000   0.0000000   0.0000000   2.7928460
 AtZNuc=   8.0000000   8.0000000   7.0000000   1.0000000   6.0000000   6.0000000   6.0000000   6.0000000   6.0000000   1.0000000

  Atom        11          12          13          14          15          16          17          18          19          20
 IAtWgt=           1          12          12          12           1           1           1          12           1           1
 AtmWgt=   1.0078250  12.0000000  12.0000000  12.0000000   1.0078250   1.0078250   1.0078250  12.0000000   1.0078250   1.0078250
 NucSpn=           1           0           0           0           1           1           1           0           1           1
 AtZEff=   1.0000000   3.6000000   3.6000000   3.6000000   1.0000000   1.0000000   1.0000000   3.6000000   1.0000000   1.0000000
 NQMom=    0.0000000   0.0000000   0.0000000   0.0000000   0.0000000   0.0000000   0.0000000   0.0000000   0.0000000   0.0000000
 NMagM=    2.7928460   0.0000000   0.0000000   0.0000000   2.7928460   2.7928460   2.7928460   0.0000000   2.7928460   2.7928460
 AtZNuc=   1.0000000   6.0000000   6.0000000   6.0000000   1.0000000   1.0000000   1.0000000   6.0000000   1.0000000   1.0000000

  Atom        21          22          23          24          25          26          27          28          29
 IAtWgt=           1          12           1           1           1          12           1           1           1
 AtmWgt=   1.0078250  12.0000000   1.0078250   1.0078250   1.0078250  12.0000000   1.0078250   1.0078250   1.0078250
 NucSpn=           1           0           1           1           1           0           1           1           1
 AtZEff=   1.0000000   3.6000000   1.0000000   1.0000000   1.0000000   3.6000000   1.0000000   1.0000000   1.0000000
 NQMom=    0.0000000   0.0000000   0.0000000   0.0000000   0.0000000   0.0000000   0.0000000   0.0000000   0.0000000
 NMagM=    2.7928460   0.0000000   2.7928460   2.7928460   2.7928460   0.0000000   2.7928460   2.7928460   2.7928460
 AtZNuc=   1.0000000   6.0000000   1.0000000   1.0000000   1.0000000   6.0000000   1.0000000   1.0000000   1.0000000
 Leave Link  101 at Fri Jan 23 22:33:42 2026, MaxMem=  2147483648 cpu:               0.9 elap:               0.1
 (Enter /data/home/wyx/g16/l202.exe)
                          Input orientation:                          
 ---------------------------------------------------------------------
 Center     Atomic      Atomic             Coordinates (Angstroms)
 Number     Number       Type             X           Y           Z
 ---------------------------------------------------------------------
      1          8           0        2.839691   -1.573384    0.037849
      2          8           0       -3.429203   -1.648793   -0.141290
      3          7           0       -0.664952    1.517747   -0.185688
      4          1           0       -0.976814    2.478348   -0.235218
      5          6           0       -1.248428   -0.762655   -0.201081
      6          6           0        0.678995    1.334892   -0.023667
      7          6           0       -1.638610    0.578642   -0.238255
      8          6           0       -2.211890   -1.846455   -0.182765
      9          6           0        0.194308   -1.082668   -0.190208
     10          1           0        0.406434   -1.888397    0.521548
     11          1           0        0.474092   -1.562221   -1.146582
     12          6           0        1.147434    0.025849    0.041424
     13          6           0        2.517919   -0.401916    0.269951
     14          6           0       -3.027428    1.105125   -0.349093
     15          1           0       -3.024235    2.189528   -0.454009
     16          1           0       -3.543492    0.675929   -1.203654
     17          1           0       -3.619066    0.845626    0.525216
     18          6           0       -1.708565   -3.268057   -0.185138
     19          1           0       -2.516063   -3.926818   -0.488508
     20          1           0       -0.858139   -3.424790   -0.842902
     21          1           0       -1.398197   -3.560573    0.818638
     22          6           0        3.566365    0.527674    0.831886
     23          1           0        4.072200    1.066980    0.028207
     24          1           0        3.163894    1.257182    1.529871
     25          1           0        4.310090   -0.083283    1.339010
     26          6           0        1.469592    2.600083    0.025453
     27          1           0        1.716045    2.895922    1.046065
     28          1           0        2.400273    2.510419   -0.526187
     29          1           0        0.907750    3.420064   -0.420871
 ---------------------------------------------------------------------
                    Distance matrix (angstroms):
                    1          2          3          4          5
     1  O    0.000000
     2  O    6.271906   0.000000
     3  N    4.678417   4.203574   0.000000
     4  H    5.572864   4.801700   1.011170   0.000000
     5  C    4.174576   2.354696   2.353915   3.252544   0.000000
     6  C    3.623598   5.078730   1.365972   2.023351   2.854144
     7  C    4.976206   2.859562   1.353769   2.011682   1.397391
     8  C    5.063764   1.233954   3.702821   4.498009   1.450247
     9  C    2.700160   3.667795   2.738705   3.748918   1.477841
    10  H    2.500787   3.899856   3.640037   4.642686   2.127923
    11  H    2.645574   4.031602   3.421541   4.388839   2.121404
    12  C    2.328367   4.876824   2.358407   3.256334   2.533910
    13  C    1.236829   6.090327   3.744780   4.556783   3.812791
    14  C    6.461209   2.790819   2.403799   2.470572   2.583670
    15  H    6.984773   3.872273   2.467692   2.079235   3.454395
    16  H    6.880826   2.558517   3.167160   3.282441   2.888251
    17  H    6.914093   2.588900   3.111900   3.197739   2.955334
    18  C    4.858834   2.363162   4.898270   5.793025   2.547355
    19  H    5.873653   2.478666   5.758611   6.592389   3.420737
    20  H    4.228164   3.202623   4.989782   5.935520   2.766084
    21  H    4.745339   2.949805   5.228351   6.144652   2.981711
    22  C    2.360719   7.390673   4.463154   5.058094   5.090599
    23  H    2.913879   7.979674   4.763355   5.249180   5.631094
    24  H    3.216107   7.396377   4.203701   4.663931   5.152138
    25  H    2.464852   8.033602   5.444175   6.082064   5.807801
    26  C    4.392625   6.486828   2.402563   2.463264   4.329776
    27  H    4.717391   6.966909   3.014254   3.011236   4.871207
    28  H    4.145922   7.171470   3.239898   3.389750   4.912405
    29  H    5.373764   6.676873   2.479418   2.114918   4.710897
                    6          7          8          9         10
     6  C    0.000000
     7  C    2.447295   0.000000
     8  C    4.301569   2.492554   0.000000
     9  C    2.471286   2.474237   2.524523   0.000000
    10  H    3.280418   3.293294   2.711722   1.095807   0.000000
    11  H    3.113870   3.141952   2.867792   1.105849   1.701066
    12  C    1.391857   2.854092   3.852381   1.480173   2.108065
    13  C    2.546440   4.300756   4.966159   2.464617   2.594474
    14  C    3.727770   1.489391   3.066691   3.897597   4.637952
    15  H    3.824854   2.135758   4.125850   4.597377   5.417626
    16  H    4.433509   2.137764   3.029488   4.253338   5.015377
    17  H    4.360503   2.139246   3.119083   4.332663   4.866163
    18  C    5.187837   3.847702   1.508076   2.897736   2.622230
    19  H    6.173335   4.596925   2.124596   3.940087   3.703561
    20  H    5.068382   4.123372   2.181643   2.649375   2.412752
    21  H    5.384216   4.278776   2.145485   3.113496   2.478130
    22  C    3.117768   5.314091   6.328842   3.874099   3.989846
    23  H    3.404160   5.737842   6.929820   4.439227   4.734499
    24  H    2.931594   5.162435   6.439312   4.153554   4.302902
    25  H    4.129523   6.189745   6.925373   4.502992   4.377809
    26  C    1.492704   3.717080   5.776536   3.903270   4.639275
    27  H    2.157919   4.274690   6.279239   4.435452   4.987976
    28  H    2.144105   4.486340   6.353923   4.229591   4.941935
    29  H    2.134957   3.819814   6.125771   4.564734   5.414723
                   11         12         13         14         15
    11  H    0.000000
    12  C    2.094448   0.000000
    13  C    2.744103   1.453766   0.000000
    14  C    4.473406   4.329759   5.779728   0.000000
    15  H    5.176251   4.725440   6.160777   1.089471   0.000000
    16  H    4.599299   4.896694   6.330400   1.086649   1.767082
    17  H    5.034539   4.860618   6.267703   1.087102   1.766006
    18  C    2.932276   4.365533   5.126894   4.570668   5.620366
    19  H    3.868515   5.415313   6.192025   5.059781   6.137517
    20  H    2.310027   4.087941   4.666259   5.046761   6.030238
    21  H    3.370603   4.466175   5.061041   5.078063   6.109606
    22  C    4.224234   2.593817   1.509685   6.723561   6.917463
    23  H    4.608602   3.104575   2.152181   7.109749   7.200836
    24  H    4.727311   2.792448   2.181121   6.471947   6.564906
    25  H    4.804197   3.420239   2.110993   7.622413   7.884980
    26  C    4.437281   2.594363   3.189164   4.753775   4.537942
    27  H    5.121053   3.093532   3.481536   5.258703   5.021899
    28  H    4.547687   2.839873   3.021485   5.609470   5.434470
    29  H    5.053502   3.433928   4.204451   4.566149   4.120173
                   16         17         18         19         20
    16  H    0.000000
    17  H    1.738821   0.000000
    18  C    4.467590   4.590970   0.000000
    19  H    4.769940   5.002047   1.085381   0.000000
    20  H    4.914993   5.266015   1.086482   1.768146   0.000000
    21  H    5.161386   4.942969   1.090624   1.758519   1.752374
    22  C    7.396991   7.198997   6.577750   7.653879   6.164667
    23  H    7.724582   7.710486   7.228783   8.283129   6.726297
    24  H    7.266295   6.869298   6.867307   7.950448   6.612690
    25  H    8.289770   8.024752   6.977823   8.044187   6.529701
    26  C    5.508546   5.405768   6.676833   7.664857   6.517014
    27  H    6.136150   5.739199   7.158104   8.174071   7.081385
    28  H    6.257208   6.333200   7.098567   8.099988   6.778220
    29  H    5.287398   5.292908   7.185516   8.105785   7.081561
                   21         22         23         24         25
    21  H    0.000000
    22  C    6.431237   0.000000
    23  H    7.208625   1.092071   0.000000
    24  H    6.673027   1.086898   1.765274   0.000000
    25  H    6.704243   1.087920   1.760086   1.773990   0.000000
    26  C    6.841567   3.056415   3.020593   2.633878   4.122416
    27  H    7.171928   3.012998   3.151592   2.239599   3.961130
    28  H    7.286554   2.671219   2.277325   2.526083   3.722049
    29  H    7.455405   4.123537   3.968932   3.684242   5.191006
                   26         27         28         29
    26  C    0.000000
    27  H    1.090829   0.000000
    28  H    1.085594   1.757486   0.000000
    29  H    1.089606   1.754983   1.751048   0.000000
 Stoichiometry    C11H15NO2
 Framework group  C1[X(C11H15NO2)]
 Deg. of freedom    81
 Full point group                 C1      NOp   1
 RotChk:  IX=0 Diff= 1.17D-15
 Largest Abelian subgroup         C1      NOp   1
 Largest concise Abelian subgroup C1      NOp   1
                         Standard orientation:                         
 ---------------------------------------------------------------------
 Center     Atomic      Atomic             Coordinates (Angstroms)
 Number     Number       Type             X           Y           Z
 ---------------------------------------------------------------------
      1          8           0        2.283864   -2.285521   -0.272774
      2          8           0       -3.628794   -0.259588    0.249614
      3          7           0        0.018741    1.803487   -0.080893
      4          1           0        0.044530    2.814301   -0.088359
      5          6           0       -1.295506   -0.149085   -0.047289
      6          6           0        1.232151    1.176247   -0.071473
      7          6           0       -1.213821    1.245821   -0.030991
      8          6           0       -2.559858   -0.849562    0.070874
      9          6           0       -0.051265   -0.931727   -0.200093
     10          1           0       -0.050219   -1.792774    0.477690
     11          1           0       -0.048934   -1.434251   -1.185164
     12          6           0        1.237442   -0.215596   -0.068548
     13          6           0        2.400229   -1.085282    0.002238
     14          6           0       -2.348480    2.209377    0.017928
     15          1           0       -1.991833    3.234253   -0.078915
     16          1           0       -3.063812    2.014975   -0.776625
     17          1           0       -2.899599    2.123415    0.951025
     18          6           0       -2.566680   -2.356052    0.002052
     19          1           0       -3.575276   -2.693952   -0.213840
     20          1           0       -1.890891   -2.757926   -0.747782
     21          1           0       -2.271121   -2.779424    0.962709
     22          6           0        3.752032   -0.584057    0.450066
     23          1           0        4.324132   -0.209107   -0.401247
     24          1           0        3.692257    0.206202    1.193884
     25          1           0        4.295156   -1.429753    0.866462
     26          6           0        2.402572    2.102178   -0.101995
     27          1           0        2.837766    2.253473    0.886753
     28          1           0        3.186958    1.732026   -0.754866
     29          1           0        2.106233    3.081430   -0.476813
 ---------------------------------------------------------------------
 Rotational constants (GHZ):           1.0740376           0.4897956           0.3428618
 Leave Link  202 at Fri Jan 23 22:33:42 2026, MaxMem=  2147483648 cpu:               0.0 elap:               0.0
 (Enter /data/home/wyx/g16/l301.exe)
 Standard basis: TZVP (5D, 7F)
 Ernie: Thresh=  0.10000D-02 Tol=  0.10000D-05 Strict=F.
 There are   370 symmetry adapted cartesian basis functions of A   symmetry.
 There are   356 symmetry adapted basis functions of A   symmetry.
   356 basis functions,   610 primitive gaussians,   370 cartesian basis functions
    52 alpha electrons       52 beta electrons
       nuclear repulsion energy       899.1605564556 Hartrees.
 IExCor=20419 DFT=T Ex+Corr=CAM-B3LYP ExCW=0 ScaHFX=  1.000000
 ScaDFX=  1.000000  1.000000  1.000000  0.810000 ScalE2=  1.000000  1.000000
 IRadAn=      5 IRanWt=     -1 IRanGd=            0 ICorTp=0 IEmpDi=141
 HFx  wShort=  0.000000 wLong=  0.330000 cFull=  0.190000 cShort=  0.000000 cLong=  0.460000
 DFx  wShort=  0.000000 wLong=  0.330000 cFull=  0.190000 cShort=  0.000000 cLong=  0.460000
 NAtoms=   29 NActive=   29 NUniq=   29 SFac= 1.00D+00 NAtFMM=   60 NAOKFM=F Big=F
 Integral buffers will be    131072 words long.
 Raffenetti 2 integral format.
 Two-electron integral symmetry is turned on.
 R6Disp:  Grimme-D3(BJ) Dispersion energy=       -0.0261244882 Hartrees.
 Nuclear repulsion after empirical dispersion term =      899.1344319673 Hartrees.
 ------------------------------------------------------------------------------
 Polarizable Continuum Model (PCM)
 =================================
 Model                : PCM.
 Atomic radii         : UFF (Universal Force Field).
 Polarization charges : Total charges.
 Charge compensation  : None.
 Solution method      : On-the-fly selection.
 Cavity type          : Scaled VdW (van der Waals Surface) (Alpha=1.100).
 Cavity algorithm     : GePol (No added spheres)
                        Default sphere list used, NSphG=   29.
                        Lebedev-Laikov grids with approx.  5.0 points / Ang**2.
                        Smoothing algorithm: York/Karplus (Gamma=1.0000).
                        Polarization charges: spherical gaussians, with
                                              point-specific exponents (IZeta= 3).
                        Self-potential: point-specific (ISelfS= 7).
                        Self-field    : sphere-specific E.n sum rule (ISelfD= 2).
 Solvent              : TetraHydroFuran, Eps=   7.425700 Eps(inf)=   1.974025
 ------------------------------------------------------------------------------
 GePol: Number of generator spheres                  =      29
 GePol: Total number of spheres                      =      29
 GePol: Number of exposed spheres                    =      29 (100.00%)
 GePol: Number of points                             =    2094
 GePol: Average weight of points                     =       0.13
 GePol: Minimum weight of points                     =   0.10D-10
 GePol: Maximum weight of points                     =    0.20577
 GePol: Number of points with low weight             =     124
 GePol: Fraction of low-weight points (<1% of avg)   =       5.92%
 GePol: Cavity surface area                          =    269.241 Ang**2
 GePol: Cavity volume                                =    287.252 Ang**3
 Leave Link  301 at Fri Jan 23 22:33:42 2026, MaxMem=  2147483648 cpu:               0.6 elap:               0.0
 (Enter /data/home/wyx/g16/l302.exe)
 NPDir=0 NMtPBC=     1 NCelOv=     1 NCel=       1 NClECP=     1 NCelD=      1
         NCelK=      1 NCelE2=     1 NClLst=     1 CellRange=     0.0.
 One-electron integrals computed using PRISM.
 One-electron integral symmetry used in STVInt
 NBasis=   356 RedAO= T EigKep=  4.08D-05  NBF=   356
 NBsUse=   356 1.00D-06 EigRej= -1.00D+00 NBFU=   356
 Precomputing XC quadrature grid using
 IXCGrd= 4 IRadAn=           5 IRanWt=          -1 IRanGd=           0 AccXCQ= 0.00D+00.
 Generated NRdTot=       0 NPtTot=           0 NUsed=           0 NTot=          32
 NSgBfM=   366   366   366   366   366 MxSgAt=    29 MxSgA2=    29.
 Leave Link  302 at Fri Jan 23 22:33:42 2026, MaxMem=  2147483648 cpu:               3.1 elap:               0.2
 (Enter /data/home/wyx/g16/l303.exe)
 DipDrv:  MaxL=1.
 Leave Link  303 at Fri Jan 23 22:33:43 2026, MaxMem=  2147483648 cpu:               0.6 elap:               0.0
 (Enter /data/home/wyx/g16/l401.exe)
 Initial guess from the checkpoint file:  "DDL-S1-cLR-gs-3.chk"
 B after Tr=    -0.000000    0.000000    0.000000
         Rot=    1.000000    0.000000   -0.000000   -0.000000 Ang=   0.00 deg.
 Guess basis will be translated and rotated to current coordinates.
 JPrj=2 DoOrth=T DoCkMO=T.
 Leave Link  401 at Fri Jan 23 22:33:43 2026, MaxMem=  2147483648 cpu:               2.2 elap:               0.2
 (Enter /data/home/wyx/g16/l502.exe)
 Integral symmetry usage will be decided dynamically.
 Closed shell SCF:
 Using DIIS extrapolation, IDIIS=  1040.
 NGot=  2147483648 LenX=  2147200095 LenY=  2147062754
 Requested convergence on RMS density matrix=1.00D-08 within 128 cycles.
 Requested convergence on MAX density matrix=1.00D-06.
 Requested convergence on             energy=1.00D-06.
 No special actions if energy rises.
 Fock matrices will be formed incrementally for  20 cycles.

 Cycle   1  Pass 1  IDiag  1:
 FoFJK:  IHMeth= 1 ICntrl=       0 DoSepK=T KAlg= 0 I1Cent=           0 FoldK=F
 IRaf=         1 NMat=       1 IRICut=       1 DoRegI=T DoRafI=F ISym2E= 0 IDoP0=0 IntGTp=1.
 FoFCou: FMM=F IPFlag=           0 FMFlag=      100000 FMFlg1=           0
         NFxFlg=           0 DoJE=T BraDBF=F KetDBF=F FulRan=T
         wScrn=  0.000000 ICntrl=       500 IOpCl=  0 I1Cent=           0 NGrid=           0
         NMat0=    1 NMatS0=      1 NMatT0=    0 NMatD0=    1 NMtDS0=    0 NMtDT0=    0
 Symmetry not used in FoFCou.
 Inv3:  Mode=1 IEnd=    13154508.
 Iteration    1 A*A^-1 deviation from unit magnitude is 3.33D-15 for    368.
 Iteration    1 A*A^-1 deviation from orthogonality  is 1.98D-15 for   1306    430.
 Iteration    1 A^-1*A deviation from unit magnitude is 3.55D-15 for    368.
 Iteration    1 A^-1*A deviation from orthogonality  is 1.67D-15 for   2086   1857.
 NEqPCM:  Using non-equilibrium solvation (IEInf=1, Eps=   7.4257, EpsInf=   1.9740)
 Inv3:  Mode=1 IEnd=    13154508.
 Iteration    1 A*A^-1 deviation from unit magnitude is 3.77D-15 for    474.
 Iteration    1 A*A^-1 deviation from orthogonality  is 1.64D-15 for   1470   1277.
 Iteration    1 A^-1*A deviation from unit magnitude is 3.55D-15 for    474.
 Iteration    1 A^-1*A deviation from orthogonality  is 1.72D-15 for   1126    490.
 E= -633.320516740400    
 DIIS: error= 1.87D-04 at cycle   1 NSaved=   1.
 NSaved= 1 IEnMin= 1 EnMin= -633.320516740400     IErMin= 1 ErrMin= 1.87D-04
 ErrMax= 1.87D-04  0.00D+00 EMaxC= 1.00D-01 BMatC= 9.53D-06 BMatP= 9.53D-06
 IDIUse=3 WtCom= 9.98D-01 WtEn= 1.87D-03
 Coeff-Com:  0.100D+01
 Coeff-En:   0.100D+01
 Coeff:      0.100D+01
 Gap=     0.218 Goal=   None    Shift=    0.000
 RMSDP=1.41D-04 MaxDP=7.91D-03              OVMax= 2.72D-03

 Cycle   2  Pass 1  IDiag  1:
 RMSU=  1.41D-04    CP:  9.99D-01
 E= -633.320535143131     Delta-E=       -0.000018402731 Rises=F Damp=F
 DIIS: error= 9.59D-05 at cycle   2 NSaved=   2.
 NSaved= 2 IEnMin= 2 EnMin= -633.320535143131     IErMin= 2 ErrMin= 9.59D-05
 ErrMax= 9.59D-05  0.00D+00 EMaxC= 1.00D-01 BMatC= 5.06D-06 BMatP= 9.53D-06
 IDIUse=1 WtCom= 1.00D+00 WtEn= 0.00D+00
 Coeff-Com:  0.392D+00 0.608D+00
 Coeff:      0.392D+00 0.608D+00
 Gap=     0.218 Goal=   None    Shift=    0.000
 RMSDP=2.52D-05 MaxDP=2.19D-03 DE=-1.84D-05 OVMax= 7.37D-04

 Cycle   3  Pass 1  IDiag  1:
 RMSU=  1.93D-05    CP:  1.00D+00  9.06D-01
 E= -633.320539156737     Delta-E=       -0.000004013605 Rises=F Damp=F
 DIIS: error= 7.44D-05 at cycle   3 NSaved=   3.
 NSaved= 3 IEnMin= 3 EnMin= -633.320539156737     IErMin= 3 ErrMin= 7.44D-05
 ErrMax= 7.44D-05  0.00D+00 EMaxC= 1.00D-01 BMatC= 1.42D-06 BMatP= 5.06D-06
 IDIUse=1 WtCom= 1.00D+00 WtEn= 0.00D+00
 Coeff-Com:  0.728D-01 0.331D+00 0.596D+00
 Coeff:      0.728D-01 0.331D+00 0.596D+00
 Gap=     0.218 Goal=   None    Shift=    0.000
 RMSDP=9.78D-06 MaxDP=5.87D-04 DE=-4.01D-06 OVMax= 4.18D-04

 Cycle   4  Pass 1  IDiag  1:
 RMSU=  8.95D-06    CP:  9.99D-01  9.07D-01  8.87D-01
 E= -633.320540255695     Delta-E=       -0.000001098958 Rises=F Damp=F
 DIIS: error= 1.63D-05 at cycle   4 NSaved=   4.
 NSaved= 4 IEnMin= 4 EnMin= -633.320540255695     IErMin= 4 ErrMin= 1.63D-05
 ErrMax= 1.63D-05  0.00D+00 EMaxC= 1.00D-01 BMatC= 1.10D-07 BMatP= 1.42D-06
 IDIUse=1 WtCom= 1.00D+00 WtEn= 0.00D+00
 Coeff-Com: -0.112D-01 0.638D-01 0.238D+00 0.709D+00
 Coeff:     -0.112D-01 0.638D-01 0.238D+00 0.709D+00
 Gap=     0.218 Goal=   None    Shift=    0.000
 RMSDP=4.45D-06 MaxDP=2.81D-04 DE=-1.10D-06 OVMax= 1.79D-04

 Cycle   5  Pass 1  IDiag  1:
 RMSU=  2.70D-06    CP:  9.99D-01  9.11D-01  1.05D+00  1.05D+00
 E= -633.320540355360     Delta-E=       -0.000000099665 Rises=F Damp=F
 DIIS: error= 4.97D-06 at cycle   5 NSaved=   5.
 NSaved= 5 IEnMin= 5 EnMin= -633.320540355360     IErMin= 5 ErrMin= 4.97D-06
 ErrMax= 4.97D-06  0.00D+00 EMaxC= 1.00D-01 BMatC= 1.91D-08 BMatP= 1.10D-07
 IDIUse=1 WtCom= 1.00D+00 WtEn= 0.00D+00
 Coeff-Com: -0.124D-01-0.171D-01 0.228D-01 0.317D+00 0.690D+00
 Coeff:     -0.124D-01-0.171D-01 0.228D-01 0.317D+00 0.690D+00
 Gap=     0.218 Goal=   None    Shift=    0.000
 RMSDP=1.30D-06 MaxDP=8.52D-05 DE=-9.97D-08 OVMax= 7.64D-05

 Cycle   6  Pass 1  IDiag  1:
 RMSU=  9.80D-07    CP:  9.99D-01  9.09D-01  1.07D+00  1.14D+00  1.07D+00
 E= -633.320540378602     Delta-E=       -0.000000023243 Rises=F Damp=F
 DIIS: error= 3.34D-06 at cycle   6 NSaved=   6.
 NSaved= 6 IEnMin= 6 EnMin= -633.320540378602     IErMin= 6 ErrMin= 3.34D-06
 ErrMax= 3.34D-06  0.00D+00 EMaxC= 1.00D-01 BMatC= 1.19D-09 BMatP= 1.91D-08
 IDIUse=1 WtCom= 1.00D+00 WtEn= 0.00D+00
 Coeff-Com: -0.135D-02-0.108D-01-0.147D-01-0.363D-02 0.154D+00 0.877D+00
 Coeff:     -0.135D-02-0.108D-01-0.147D-01-0.363D-02 0.154D+00 0.877D+00
 Gap=     0.218 Goal=   None    Shift=    0.000
 RMSDP=8.00D-07 MaxDP=5.13D-05 DE=-2.32D-08 OVMax= 5.53D-05

 Cycle   7  Pass 1  IDiag  1:
 RMSU=  3.18D-07    CP:  9.99D-01  9.07D-01  1.08D+00  1.17D+00  1.21D+00
                    CP:  1.34D+00
 E= -633.320540381793     Delta-E=       -0.000000003190 Rises=F Damp=F
 DIIS: error= 2.08D-06 at cycle   7 NSaved=   7.
 NSaved= 7 IEnMin= 7 EnMin= -633.320540381793     IErMin= 7 ErrMin= 2.08D-06
 ErrMax= 2.08D-06  0.00D+00 EMaxC= 1.00D-01 BMatC= 5.04D-10 BMatP= 1.19D-09
 IDIUse=1 WtCom= 1.00D+00 WtEn= 0.00D+00
 Coeff-Com:  0.111D-02-0.325D-02-0.797D-02-0.443D-01-0.324D-01 0.429D+00
 Coeff-Com:  0.658D+00
 Coeff:      0.111D-02-0.325D-02-0.797D-02-0.443D-01-0.324D-01 0.429D+00
 Coeff:      0.658D+00
 Gap=     0.218 Goal=   None    Shift=    0.000
 RMSDP=2.37D-07 MaxDP=1.18D-05 DE=-3.19D-09 OVMax= 2.41D-05

 Cycle   8  Pass 1  IDiag  1:
 RMSU=  1.26D-07    CP:  9.99D-01  9.07D-01  1.08D+00  1.18D+00  1.24D+00
                    CP:  1.47D+00  1.09D+00
 E= -633.320540382668     Delta-E=       -0.000000000876 Rises=F Damp=F
 DIIS: error= 8.86D-07 at cycle   8 NSaved=   8.
 NSaved= 8 IEnMin= 8 EnMin= -633.320540382668     IErMin= 8 ErrMin= 8.86D-07
 ErrMax= 8.86D-07  0.00D+00 EMaxC= 1.00D-01 BMatC= 8.28D-11 BMatP= 5.04D-10
 IDIUse=1 WtCom= 1.00D+00 WtEn= 0.00D+00
 Coeff-Com:  0.794D-03 0.577D-03 0.806D-03-0.163D-01-0.574D-01-0.425D-01
 Coeff-Com:  0.264D+00 0.850D+00
 Coeff:      0.794D-03 0.577D-03 0.806D-03-0.163D-01-0.574D-01-0.425D-01
 Coeff:      0.264D+00 0.850D+00
 Gap=     0.218 Goal=   None    Shift=    0.000
 RMSDP=1.93D-07 MaxDP=1.04D-05 DE=-8.76D-10 OVMax= 1.69D-05

 Cycle   9  Pass 1  IDiag  1:
 RMSU=  7.10D-08    CP:  9.99D-01  9.06D-01  1.09D+00  1.18D+00  1.26D+00
                    CP:  1.60D+00  1.37D+00  1.23D+00
 E= -633.320540382906     Delta-E=       -0.000000000237 Rises=F Damp=F
 DIIS: error= 3.80D-07 at cycle   9 NSaved=   9.
 NSaved= 9 IEnMin= 9 EnMin= -633.320540382906     IErMin= 9 ErrMin= 3.80D-07
 ErrMax= 3.80D-07  0.00D+00 EMaxC= 1.00D-01 BMatC= 1.28D-11 BMatP= 8.28D-11
 IDIUse=1 WtCom= 1.00D+00 WtEn= 0.00D+00
 Coeff-Com:  0.139D-03 0.691D-03 0.181D-02 0.220D-02-0.180D-01-0.940D-01
 Coeff-Com: -0.830D-02 0.338D+00 0.778D+00
 Coeff:      0.139D-03 0.691D-03 0.181D-02 0.220D-02-0.180D-01-0.940D-01
 Coeff:     -0.830D-02 0.338D+00 0.778D+00
 Gap=     0.218 Goal=   None    Shift=    0.000
 RMSDP=6.22D-08 MaxDP=2.53D-06 DE=-2.37D-10 OVMax= 6.47D-06

 Cycle  10  Pass 1  IDiag  1:
 RMSU=  2.59D-08    CP:  9.99D-01  9.06D-01  1.08D+00  1.18D+00  1.26D+00
                    CP:  1.64D+00  1.45D+00  1.37D+00  1.20D+00
 E= -633.320540382936     Delta-E=       -0.000000000031 Rises=F Damp=F
 DIIS: error= 1.34D-07 at cycle  10 NSaved=  10.
 NSaved=10 IEnMin=10 EnMin= -633.320540382936     IErMin=10 ErrMin= 1.34D-07
 ErrMax= 1.34D-07  0.00D+00 EMaxC= 1.00D-01 BMatC= 2.03D-12 BMatP= 1.28D-11
 IDIUse=1 WtCom= 1.00D+00 WtEn= 0.00D+00
 Coeff-Com: -0.697D-04 0.225D-03 0.435D-03 0.359D-02 0.182D-02-0.305D-01
 Coeff-Com: -0.413D-01-0.810D-02 0.278D+00 0.796D+00
 Coeff:     -0.697D-04 0.225D-03 0.435D-03 0.359D-02 0.182D-02-0.305D-01
 Coeff:     -0.413D-01-0.810D-02 0.278D+00 0.796D+00
 Gap=     0.218 Goal=   None    Shift=    0.000
 RMSDP=2.94D-08 MaxDP=1.61D-06 DE=-3.07D-11 OVMax= 2.47D-06

 Cycle  11  Pass 1  IDiag  1:
 RMSU=  9.21D-09    CP:  9.99D-01  9.06D-01  1.08D+00  1.18D+00  1.26D+00
                    CP:  1.66D+00  1.49D+00  1.41D+00  1.42D+00  1.18D+00
 E= -633.320540382947     Delta-E=       -0.000000000011 Rises=F Damp=F
 DIIS: error= 4.63D-08 at cycle  11 NSaved=  11.
 NSaved=11 IEnMin=11 EnMin= -633.320540382947     IErMin=11 ErrMin= 4.63D-08
 ErrMax= 4.63D-08  0.00D+00 EMaxC= 1.00D-01 BMatC= 6.73D-13 BMatP= 2.03D-12
 IDIUse=1 WtCom= 1.00D+00 WtEn= 0.00D+00
 Coeff-Com: -0.559D-04 0.380D-04-0.128D-03 0.151D-02 0.399D-02 0.113D-02
 Coeff-Com: -0.171D-01-0.596D-01 0.527D-02 0.421D+00 0.644D+00
 Coeff:     -0.559D-04 0.380D-04-0.128D-03 0.151D-02 0.399D-02 0.113D-02
 Coeff:     -0.171D-01-0.596D-01 0.527D-02 0.421D+00 0.644D+00
 Gap=     0.218 Goal=   None    Shift=    0.000
 RMSDP=9.80D-09 MaxDP=5.15D-07 DE=-1.09D-11 OVMax= 7.14D-07

 Error on total polarization charges =  0.00946
 SCF Done:  E(RCAM-B3LYP) =  -633.320540383     A.U. after   11 cycles
            NFock= 11  Conv=0.98D-08     -V/T= 2.0043
 KE= 6.306389606009D+02 PE=-3.274170552584D+03 EE= 1.111076619633D+03
 Leave Link  502 at Fri Jan 23 22:34:27 2026, MaxMem=  2147483648 cpu:             689.7 elap:              43.8
 (Enter /data/home/wyx/g16/l601.exe)
 Copying SCF densities to generalized density rwf, IOpCl= 0 IROHF=0.

 **********************************************************************

            Population analysis using the SCF density.

 **********************************************************************

 Orbital symmetries:
       Occupied  (A) (A) (A) (A) (A) (A) (A) (A) (A) (A) (A) (A)
                 (A) (A) (A) (A) (A) (A) (A) (A) (A) (A) (A) (A)
                 (A) (A) (A) (A) (A) (A) (A) (A) (A) (A) (A) (A)
                 (A) (A) (A) (A) (A) (A) (A) (A) (A) (A) (A) (A)
                 (A) (A) (A) (A)
       Virtual   (A) (A) (A) (A) (A) (A) (A) (A) (A) (A) (A) (A)
                 (A) (A) (A) (A) (A) (A) (A) (A) (A) (A) (A) (A)
                 (A) (A) (A) (A) (A) (A) (A) (A) (A) (A) (A) (A)
                 (A) (A) (A) (A) (A) (A) (A) (A) (A) (A) (A) (A)
                 (A) (A) (A) (A) (A) (A) (A) (A) (A) (A) (A) (A)
                 (A) (A) (A) (A) (A) (A) (A) (A) (A) (A) (A) (A)
                 (A) (A) (A) (A) (A) (A) (A) (A) (A) (A) (A) (A)
                 (A) (A) (A) (A) (A) (A) (A) (A) (A) (A) (A) (A)
                 (A) (A) (A) (A) (A) (A) (A) (A) (A) (A) (A) (A)
                 (A) (A) (A) (A) (A) (A) (A) (A) (A) (A) (A) (A)
                 (A) (A) (A) (A) (A) (A) (A) (A) (A) (A) (A) (A)
                 (A) (A) (A) (A) (A) (A) (A) (A) (A) (A) (A) (A)
                 (A) (A) (A) (A) (A) (A) (A) (A) (A) (A) (A) (A)
                 (A) (A) (A) (A) (A) (A) (A) (A) (A) (A) (A) (A)
                 (A) (A) (A) (A) (A) (A) (A) (A) (A) (A) (A) (A)
                 (A) (A) (A) (A) (A) (A) (A) (A) (A) (A) (A) (A)
                 (A) (A) (A) (A) (A) (A) (A) (A) (A) (A) (A) (A)
                 (A) (A) (A) (A) (A) (A) (A) (A) (A) (A) (A) (A)
                 (A) (A) (A) (A) (A) (A) (A) (A) (A) (A) (A) (A)
                 (A) (A) (A) (A) (A) (A) (A) (A) (A) (A) (A) (A)
                 (A) (A) (A) (A) (A) (A) (A) (A) (A) (A) (A) (A)
                 (A) (A) (A) (A) (A) (A) (A) (A) (A) (A) (A) (A)
                 (A) (A) (A) (A) (A) (A) (A) (A) (A) (A) (A) (A)
                 (A) (A) (A) (A) (A) (A) (A) (A) (A) (A) (A) (A)
                 (A) (A) (A) (A) (A) (A) (A) (A) (A) (A) (A) (A)
                 (A) (A) (A) (A)
 The electronic state is 1-A.
 Alpha  occ. eigenvalues --  -19.17790 -19.16816 -14.44671 -10.33347 -10.32782
 Alpha  occ. eigenvalues --  -10.32676 -10.32082 -10.26270 -10.25325 -10.25000
 Alpha  occ. eigenvalues --  -10.24559 -10.24319 -10.24250 -10.23508  -1.11393
 Alpha  occ. eigenvalues --   -1.10741  -1.08358  -0.91376  -0.90380  -0.83920
 Alpha  occ. eigenvalues --   -0.82633  -0.81688  -0.78462  -0.73723  -0.72092
 Alpha  occ. eigenvalues --   -0.68623  -0.61505  -0.58239  -0.56988  -0.55076
 Alpha  occ. eigenvalues --   -0.54545  -0.53958  -0.52460  -0.51763  -0.50838
 Alpha  occ. eigenvalues --   -0.49724  -0.49461  -0.49225  -0.48675  -0.47934
 Alpha  occ. eigenvalues --   -0.47188  -0.45276  -0.45037  -0.43886  -0.43227
 Alpha  occ. eigenvalues --   -0.42106  -0.42017  -0.41460  -0.32538  -0.32129
 Alpha  occ. eigenvalues --   -0.31037  -0.24993
 Alpha virt. eigenvalues --   -0.03193   0.02618   0.06284   0.08187   0.08383
 Alpha virt. eigenvalues --    0.09745   0.10797   0.11614   0.12537   0.13431
 Alpha virt. eigenvalues --    0.13930   0.14812   0.15625   0.16420   0.16952
 Alpha virt. eigenvalues --    0.17549   0.17811   0.18028   0.18497   0.19282
 Alpha virt. eigenvalues --    0.19866   0.22068   0.22816   0.23579   0.23807
 Alpha virt. eigenvalues --    0.23940   0.24770   0.25671   0.26344   0.26745
 Alpha virt. eigenvalues --    0.27420   0.28103   0.28477   0.29528   0.30225
 Alpha virt. eigenvalues --    0.31673   0.31979   0.32389   0.33490   0.34302
 Alpha virt. eigenvalues --    0.34784   0.35878   0.36778   0.37803   0.38625
 Alpha virt. eigenvalues --    0.39732   0.41104   0.41462   0.41942   0.42509
 Alpha virt. eigenvalues --    0.44033   0.44883   0.45574   0.46224   0.46505
 Alpha virt. eigenvalues --    0.47299   0.47798   0.48018   0.48462   0.49135
 Alpha virt. eigenvalues --    0.49633   0.50655   0.51260   0.51457   0.51615
 Alpha virt. eigenvalues --    0.52645   0.52752   0.53311   0.53781   0.54250
 Alpha virt. eigenvalues --    0.54441   0.55311   0.55944   0.56720   0.58248
 Alpha virt. eigenvalues --    0.58465   0.59982   0.61139   0.61774   0.63147
 Alpha virt. eigenvalues --    0.64189   0.65191   0.66510   0.66920   0.67683
 Alpha virt. eigenvalues --    0.68778   0.69445   0.70763   0.71303   0.72205
 Alpha virt. eigenvalues --    0.73118   0.74697   0.75182   0.76059   0.77712
 Alpha virt. eigenvalues --    0.79166   0.80529   0.83402   0.86648   0.87557
 Alpha virt. eigenvalues --    0.91393   0.95671   1.02365   1.04284   1.22159
 Alpha virt. eigenvalues --    1.24398   1.27285   1.28477   1.29096   1.30455
 Alpha virt. eigenvalues --    1.32020   1.33135   1.34527   1.35137   1.36294
 Alpha virt. eigenvalues --    1.36773   1.37872   1.38482   1.38849   1.39611
 Alpha virt. eigenvalues --    1.39960   1.40314   1.40831   1.41341   1.42073
 Alpha virt. eigenvalues --    1.43438   1.43573   1.44317   1.45536   1.47374
 Alpha virt. eigenvalues --    1.48170   1.49553   1.50039   1.50368   1.50603
 Alpha virt. eigenvalues --    1.51383   1.52302   1.52936   1.55558   1.58681
 Alpha virt. eigenvalues --    1.59555   1.60194   1.60973   1.61676   1.62469
 Alpha virt. eigenvalues --    1.62636   1.63097   1.63640   1.64520   1.65866
 Alpha virt. eigenvalues --    1.66424   1.67082   1.67552   1.67976   1.68720
 Alpha virt. eigenvalues --    1.69078   1.69843   1.70221   1.71074   1.72509
 Alpha virt. eigenvalues --    1.74270   1.74876   1.75744   1.76656   1.78628
 Alpha virt. eigenvalues --    1.81565   1.82960   1.83868   1.85703   1.86589
 Alpha virt. eigenvalues --    1.86614   1.88113   1.88704   1.89024   1.90256
 Alpha virt. eigenvalues --    1.91308   1.94505   1.95155   1.99142   1.99761
 Alpha virt. eigenvalues --    2.01626   2.03927   2.05731   2.06895   2.09597
 Alpha virt. eigenvalues --    2.10369   2.11771   2.15799   2.17551   2.19734
 Alpha virt. eigenvalues --    2.20478   2.21210   2.22184   2.22983   2.26492
 Alpha virt. eigenvalues --    2.27154   2.27459   2.29288   2.31301   2.32339
 Alpha virt. eigenvalues --    2.33821   2.34433   2.36934   2.37927   2.39313
 Alpha virt. eigenvalues --    2.39467   2.40362   2.41489   2.42836   2.45165
 Alpha virt. eigenvalues --    2.45870   2.47806   2.49066   2.49781   2.51302
 Alpha virt. eigenvalues --    2.52479   2.54248   2.54663   2.56471   2.57481
 Alpha virt. eigenvalues --    2.58727   2.60972   2.61938   2.62547   2.63435
 Alpha virt. eigenvalues --    2.64793   2.65594   2.66649   2.67433   2.68446
 Alpha virt. eigenvalues --    2.71705   2.72071   2.73924   2.74818   2.75358
 Alpha virt. eigenvalues --    2.76706   2.77012   2.77491   2.78249   2.78941
 Alpha virt. eigenvalues --    2.80765   2.81835   2.83173   2.83893   2.85101
 Alpha virt. eigenvalues --    2.85569   2.86412   2.88948   2.89150   2.92081
 Alpha virt. eigenvalues --    2.97391   2.98863   3.01042   3.07000   3.10857
 Alpha virt. eigenvalues --    3.12243   3.14407   3.17932   3.19228   3.21466
 Alpha virt. eigenvalues --    3.22314   3.23551   3.25211   3.25874   3.26687
 Alpha virt. eigenvalues --    3.28898   3.30336   3.32554   3.34690   3.36542
 Alpha virt. eigenvalues --    3.38195   3.38761   3.39485   3.39716   3.41797
 Alpha virt. eigenvalues --    3.42125   3.44012   3.44995   3.47785   3.48550
 Alpha virt. eigenvalues --    3.49783   3.50139   3.55967   3.58507   3.60085
 Alpha virt. eigenvalues --    3.61370   3.91177   4.00882   4.33251   4.36360
 Alpha virt. eigenvalues --   21.67967  21.80905  22.08106  22.10365  22.11683
 Alpha virt. eigenvalues --   22.14849  22.15153  22.18110  22.19292  22.25162
 Alpha virt. eigenvalues --   22.27636  31.91565  43.64040  43.66914
          Condensed to atoms (all electrons):
               1          2          3          4          5          6
     1  O    7.931747   0.000000  -0.000178   0.000019   0.018789   0.008906
     2  O    0.000000   7.982381   0.000379   0.000013  -0.194036   0.001354
     3  N   -0.000178   0.000379   6.360381   0.368777  -0.119207   0.329638
     4  H    0.000019   0.000013   0.368777   0.411973   0.016153  -0.045818
     5  C    0.018789  -0.194036  -0.119207   0.016153   7.146141  -0.083780
     6  C    0.008906   0.001354   0.329638  -0.045818  -0.083780   5.558339
     7  C   -0.000059  -0.049409   0.393888  -0.036217   0.475217  -0.127083
     8  C   -0.000736   0.701597   0.004162  -0.000899  -0.351914   0.034203
     9  C   -0.004434   0.026933   0.014752   0.000216  -0.706154  -0.041103
    10  H    0.008555   0.000002  -0.001253   0.000022  -0.113741   0.029212
    11  H    0.007910   0.000117   0.003404   0.000037  -0.062219  -0.019323
    12  C   -0.232155  -0.003202  -0.086915   0.014581   0.200370  -0.066788
    13  C    0.718123  -0.000015   0.001632   0.000560   0.082438   0.121444
    14  C   -0.000008  -0.005945  -0.032889  -0.010636  -0.087049   0.011007
    15  H   -0.000000   0.004171   0.004815   0.002200   0.021182   0.006378
    16  H    0.000000   0.002347  -0.000419   0.000804  -0.005289  -0.001296
    17  H   -0.000000   0.003521  -0.002039   0.000918  -0.008968  -0.001319
    18  C    0.000264  -0.100313  -0.000508   0.000021  -0.251195   0.000027
    19  H   -0.000000   0.007422   0.000006  -0.000001   0.024006   0.000016
    20  H    0.000167   0.004254   0.000111   0.000001   0.046184  -0.001252
    21  H   -0.000005   0.000737   0.000012  -0.000001   0.001811   0.000190
    22  C   -0.106248   0.000000  -0.000229   0.000118   0.003820  -0.023047
    23  H    0.001434   0.000000   0.000020  -0.000011  -0.000014   0.008207
    24  H    0.005084  -0.000000   0.000186  -0.000056  -0.000709  -0.025229
    25  H    0.006710   0.000000   0.000022  -0.000003  -0.000137  -0.000890
    26  C    0.000732   0.000010  -0.025540  -0.006793   0.000749   0.192677
    27  H   -0.000054  -0.000000  -0.002397   0.000498   0.000378  -0.033201
    28  H   -0.000224  -0.000000   0.000997   0.000731   0.000063  -0.049050
    29  H    0.000023   0.000000   0.002165   0.002035  -0.000310  -0.048103
               7          8          9         10         11         12
     1  O   -0.000059  -0.000736  -0.004434   0.008555   0.007910  -0.232155
     2  O   -0.049409   0.701597   0.026933   0.000002   0.000117  -0.003202
     3  N    0.393888   0.004162   0.014752  -0.001253   0.003404  -0.086915
     4  H   -0.036217  -0.000899   0.000216   0.000022   0.000037   0.014581
     5  C    0.475217  -0.351914  -0.706154  -0.113741  -0.062219   0.200370
     6  C   -0.127083   0.034203  -0.041103   0.029212  -0.019323  -0.066788
     7  C    5.409415  -0.241626  -0.220833   0.015765  -0.006100   0.024942
     8  C   -0.241626   5.422815   0.212270  -0.009652  -0.001184  -0.053131
     9  C   -0.220833   0.212270   6.409820   0.532665   0.427290  -0.139291
    10  H    0.015765  -0.009652   0.532665   0.535866  -0.049174  -0.108462
    11  H   -0.006100  -0.001184   0.427290  -0.049174   0.572372  -0.013450
    12  C    0.024942  -0.053131  -0.139291  -0.108462  -0.013450   7.382508
    13  C    0.020413  -0.009838  -0.238829  -0.000707  -0.007955  -0.514697
    14  C    0.291155  -0.031693   0.005075   0.000446  -0.000768   0.000218
    15  H   -0.085825   0.005402   0.000825  -0.000003   0.000041  -0.001638
    16  H   -0.024202  -0.006697  -0.000320  -0.000056   0.000176   0.000207
    17  H   -0.019680  -0.001692   0.000952   0.000063  -0.000062   0.000310
    18  C   -0.001922   0.327442   0.001532   0.007362  -0.013695  -0.000602
    19  H    0.000231  -0.053363  -0.002116   0.000596   0.000120  -0.000148
    20  H    0.004191  -0.072423  -0.008560  -0.007516   0.003032   0.007015
    21  H   -0.000372  -0.023647  -0.009336  -0.000680   0.000702  -0.002444
    22  C    0.000168  -0.000073   0.009606  -0.001271   0.003399  -0.255579
    23  H   -0.000011   0.000002  -0.002112  -0.000133   0.000177  -0.010586
    24  H   -0.000029   0.000010   0.002638   0.000099  -0.000224   0.066102
    25  H    0.000011   0.000002   0.000308  -0.000030  -0.000104   0.019741
    26  C    0.002802   0.000850   0.021814   0.000155  -0.000734  -0.084411
    27  H   -0.000820  -0.000014  -0.000484   0.000039  -0.000008  -0.017300
    28  H   -0.000743   0.000001  -0.000052   0.000013  -0.000100  -0.006947
    29  H    0.003002  -0.000003  -0.000503  -0.000014   0.000082   0.022364
              13         14         15         16         17         18
     1  O    0.718123  -0.000008  -0.000000   0.000000  -0.000000   0.000264
     2  O   -0.000015  -0.005945   0.004171   0.002347   0.003521  -0.100313
     3  N    0.001632  -0.032889   0.004815  -0.000419  -0.002039  -0.000508
     4  H    0.000560  -0.010636   0.002200   0.000804   0.000918   0.000021
     5  C    0.082438  -0.087049   0.021182  -0.005289  -0.008968  -0.251195
     6  C    0.121444   0.011007   0.006378  -0.001296  -0.001319   0.000027
     7  C    0.020413   0.291155  -0.085825  -0.024202  -0.019680  -0.001922
     8  C   -0.009838  -0.031693   0.005402  -0.006697  -0.001692   0.327442
     9  C   -0.238829   0.005075   0.000825  -0.000320   0.000952   0.001532
    10  H   -0.000707   0.000446  -0.000003  -0.000056   0.000063   0.007362
    11  H   -0.007955  -0.000768   0.000041   0.000176  -0.000062  -0.013695
    12  C   -0.514697   0.000218  -0.001638   0.000207   0.000310  -0.000602
    13  C    5.601266   0.000132  -0.000042  -0.000005  -0.000006   0.001405
    14  C    0.000132   5.030145   0.390638   0.414785   0.407997   0.001056
    15  H   -0.000042   0.390638   0.580374  -0.027437  -0.025835   0.000231
    16  H   -0.000005   0.414785  -0.027437   0.509879  -0.026162  -0.000172
    17  H   -0.000006   0.407997  -0.025835  -0.026162   0.506624   0.000114
    18  C    0.001405   0.001056   0.000231  -0.000172   0.000114   5.308101
    19  H   -0.000012   0.000035  -0.000004   0.000039  -0.000037   0.396532
    20  H    0.000925   0.000096  -0.000014  -0.000029  -0.000001   0.380736
    21  H   -0.000150  -0.000198  -0.000005   0.000011  -0.000008   0.399829
    22  C    0.277715  -0.000010   0.000002  -0.000000   0.000000   0.000031
    23  H   -0.022577  -0.000001   0.000000  -0.000000   0.000000  -0.000002
    24  H   -0.099736   0.000003   0.000000  -0.000000   0.000000   0.000001
    25  H   -0.034631   0.000000   0.000000   0.000000  -0.000000  -0.000001
    26  C   -0.054604   0.000533   0.000284   0.000013  -0.000072   0.000007
    27  H    0.006707  -0.000097  -0.000005   0.000004  -0.000005  -0.000000
    28  H   -0.002027   0.000053  -0.000008  -0.000002   0.000001   0.000000
    29  H   -0.001342  -0.000135   0.000104  -0.000002  -0.000000  -0.000000
              19         20         21         22         23         24
     1  O   -0.000000   0.000167  -0.000005  -0.106248   0.001434   0.005084
     2  O    0.007422   0.004254   0.000737   0.000000   0.000000  -0.000000
     3  N    0.000006   0.000111   0.000012  -0.000229   0.000020   0.000186
     4  H   -0.000001   0.000001  -0.000001   0.000118  -0.000011  -0.000056
     5  C    0.024006   0.046184   0.001811   0.003820  -0.000014  -0.000709
     6  C    0.000016  -0.001252   0.000190  -0.023047   0.008207  -0.025229
     7  C    0.000231   0.004191  -0.000372   0.000168  -0.000011  -0.000029
     8  C   -0.053363  -0.072423  -0.023647  -0.000073   0.000002   0.000010
     9  C   -0.002116  -0.008560  -0.009336   0.009606  -0.002112   0.002638
    10  H    0.000596  -0.007516  -0.000680  -0.001271  -0.000133   0.000099
    11  H    0.000120   0.003032   0.000702   0.003399   0.000177  -0.000224
    12  C   -0.000148   0.007015  -0.002444  -0.255579  -0.010586   0.066102
    13  C   -0.000012   0.000925  -0.000150   0.277715  -0.022577  -0.099736
    14  C    0.000035   0.000096  -0.000198  -0.000010  -0.000001   0.000003
    15  H   -0.000004  -0.000014  -0.000005   0.000002   0.000000   0.000000
    16  H    0.000039  -0.000029   0.000011  -0.000000  -0.000000  -0.000000
    17  H   -0.000037  -0.000001  -0.000008   0.000000   0.000000   0.000000
    18  C    0.396532   0.380736   0.399829   0.000031  -0.000002   0.000001
    19  H    0.510409  -0.025121  -0.010439  -0.000000   0.000000   0.000000
    20  H   -0.025121   0.537192  -0.022844   0.000034  -0.000000  -0.000001
    21  H   -0.010439  -0.022844   0.492845  -0.000011   0.000000   0.000000
    22  C   -0.000000   0.000034  -0.000011   5.438642   0.400331   0.395514
    23  H    0.000000  -0.000000   0.000000   0.400331   0.497018  -0.027968
    24  H    0.000000  -0.000001   0.000000   0.395514  -0.027968   0.549716
    25  H   -0.000000  -0.000000   0.000000   0.381818  -0.008162  -0.022379
    26  C    0.000000  -0.000017   0.000003  -0.033983  -0.010171   0.016442
    27  H    0.000000   0.000000  -0.000000  -0.010734   0.000875  -0.001893
    28  H   -0.000000  -0.000000   0.000000   0.003893   0.000069  -0.007125
    29  H    0.000000   0.000000  -0.000000   0.002074   0.000167   0.000588
              25         26         27         28         29
     1  O    0.006710   0.000732  -0.000054  -0.000224   0.000023
     2  O    0.000000   0.000010  -0.000000  -0.000000   0.000000
     3  N    0.000022  -0.025540  -0.002397   0.000997   0.002165
     4  H   -0.000003  -0.006793   0.000498   0.000731   0.002035
     5  C   -0.000137   0.000749   0.000378   0.000063  -0.000310
     6  C   -0.000890   0.192677  -0.033201  -0.049050  -0.048103
     7  C    0.000011   0.002802  -0.000820  -0.000743   0.003002
     8  C    0.000002   0.000850  -0.000014   0.000001  -0.000003
     9  C    0.000308   0.021814  -0.000484  -0.000052  -0.000503
    10  H   -0.000030   0.000155   0.000039   0.000013  -0.000014
    11  H   -0.000104  -0.000734  -0.000008  -0.000100   0.000082
    12  C    0.019741  -0.084411  -0.017300  -0.006947   0.022364
    13  C   -0.034631  -0.054604   0.006707  -0.002027  -0.001342
    14  C    0.000000   0.000533  -0.000097   0.000053  -0.000135
    15  H    0.000000   0.000284  -0.000005  -0.000008   0.000104
    16  H    0.000000   0.000013   0.000004  -0.000002  -0.000002
    17  H   -0.000000  -0.000072  -0.000005   0.000001  -0.000000
    18  C   -0.000001   0.000007  -0.000000   0.000000  -0.000000
    19  H   -0.000000   0.000000   0.000000  -0.000000   0.000000
    20  H   -0.000000  -0.000017   0.000000  -0.000000   0.000000
    21  H    0.000000   0.000003  -0.000000   0.000000  -0.000000
    22  C    0.381818  -0.033983  -0.010734   0.003893   0.002074
    23  H   -0.008162  -0.010171   0.000875   0.000069   0.000167
    24  H   -0.022379   0.016442  -0.001893  -0.007125   0.000588
    25  H    0.494339   0.001968   0.000127   0.000566  -0.000036
    26  C    0.001968   5.238524   0.426374   0.432557   0.388001
    27  H    0.000127   0.426374   0.483943  -0.028599  -0.016864
    28  H    0.000566   0.432557  -0.028599   0.507162  -0.024721
    29  H   -0.000036   0.388001  -0.016864  -0.024721   0.516577
 Mulliken charges:
               1
     1  O   -0.364365
     2  O   -0.382317
     3  N   -0.213775
     4  H    0.280760
     5  C   -0.052580
     6  C    0.265686
     7  C    0.173733
     8  C    0.149830
     9  C   -0.292565
    10  H    0.161832
    11  H    0.156238
    12  C   -0.140613
    13  C    0.154413
    14  C   -0.383947
    15  H    0.124171
    16  H    0.163823
    17  H    0.165387
    18  C   -0.456282
    19  H    0.151830
    20  H    0.153840
    21  H    0.173999
    22  C   -0.485980
    23  H    0.173448
    24  H    0.148967
    25  H    0.160760
    26  C   -0.508168
    27  H    0.193531
    28  H    0.173492
    29  H    0.154851
 Sum of Mulliken charges =  -0.00000
 Mulliken charges with hydrogens summed into heavy atoms:
               1
     1  O   -0.364365
     2  O   -0.382317
     3  N    0.066985
     5  C   -0.052580
     6  C    0.265686
     7  C    0.173733
     8  C    0.149830
     9  C    0.025506
    12  C   -0.140613
    13  C    0.154413
    14  C    0.069434
    18  C    0.023387
    22  C   -0.002804
    26  C    0.013705
 Electronic spatial extent (au):  <R**2>=           3206.6098
 Charge=             -0.0000 electrons
 Dipole moment (field-independent basis, Debye):
    X=              3.9922    Y=              7.5730    Z=              0.1527  Tot=              8.5622
 Quadrupole moment (field-independent basis, Debye-Ang):
   XX=            -98.9927   YY=            -78.1676   ZZ=            -84.8953
   XY=             12.2465   XZ=              3.9004   YZ=             -2.2783
 Traceless Quadrupole moment (field-independent basis, Debye-Ang):
   XX=            -11.6409   YY=              9.1842   ZZ=              2.4566
   XY=             12.2465   XZ=              3.9004   YZ=             -2.2783
 Octapole moment (field-independent basis, Debye-Ang**2):
  XXX=            110.4604  YYY=             64.6935  ZZZ=              1.0873  XYY=            -34.8017
  XXY=             32.3322  XXZ=             -4.4565  XZZ=              0.3496  YZZ=             -1.2939
  YYZ=              4.6377  XYZ=             -5.2192
 Hexadecapole moment (field-independent basis, Debye-Ang**3):
 XXXX=          -3081.5805 YYYY=          -1295.1463 ZZZZ=           -142.0471 XXXY=             31.5822
 XXXZ=             41.9447 YYYX=             87.5278 YYYZ=            -19.3502 ZZZX=             -3.7402
 ZZZY=              2.0893 XXYY=           -693.8560 XXZZ=           -479.9675 YYZZ=           -245.3620
 XXYZ=            -10.3661 YYXZ=              9.9139 ZZXY=              0.0469
 N-N= 8.991344319673D+02 E-N=-3.274170547612D+03  KE= 6.306389606009D+02
 No NMR shielding tensors so no spin-rotation constants.
 Leave Link  601 at Fri Jan 23 22:34:27 2026, MaxMem=  2147483648 cpu:               1.8 elap:               0.1
 (Enter /data/home/wyx/g16/l9999.exe)
 1\1\GINC-CN012\SP\RCAM-B3LYP\TZVP\C11H15N1O2\WYX\23-Jan-2026\0\\#p CAM
 -B3LYP TZVP em=gd3bj scrf=(Solvent=TetraHydroFuran,NonEquilibrium=Read
 ) Geom=Check Guess=Read\\Title Card Required\\0,1\O,0,2.839691,-1.5733
 84,0.037849\O,0,-3.429203,-1.648793,-0.14129\N,0,-0.664952,1.517747,-0
 .185688\H,0,-0.976814,2.478348,-0.235218\C,0,-1.248428,-0.762655,-0.20
 1081\C,0,0.678995,1.334892,-0.023667\C,0,-1.63861,0.578642,-0.238255\C
 ,0,-2.21189,-1.846455,-0.182765\C,0,0.194308,-1.082668,-0.190208\H,0,0
 .406434,-1.888397,0.521548\H,0,0.474092,-1.562221,-1.146582\C,0,1.1474
 34,0.025849,0.041424\C,0,2.517919,-0.401916,0.269951\C,0,-3.027428,1.1
 05125,-0.349093\H,0,-3.024235,2.189528,-0.454009\H,0,-3.543492,0.67592
 9,-1.203654\H,0,-3.619066,0.845626,0.525216\C,0,-1.708565,-3.268057,-0
 .185138\H,0,-2.516063,-3.926818,-0.488508\H,0,-0.858139,-3.42479,-0.84
 2902\H,0,-1.398197,-3.560573,0.818638\C,0,3.566365,0.527674,0.831886\H
 ,0,4.0722,1.06698,0.028207\H,0,3.163894,1.257182,1.529871\H,0,4.31009,
 -0.083283,1.33901\C,0,1.469592,2.600083,0.025453\H,0,1.716045,2.895922
 ,1.046065\H,0,2.400273,2.510419,-0.526187\H,0,0.90775,3.420064,-0.4208
 71\\Version=ES64L-G16RevA.03\State=1-A\HF=-633.3205404\RMSD=9.805e-09\
 Dipole=0.4708574,3.3343661,0.089394\Quadrupole=-13.21867,10.834216,2.3
 84454,2.2334906,1.5910826,-0.4382156\PG=C01 [X(C11H15N1O2)]\\@


 The chemist is a guest at the physicist's table and
 frequently dines well.
                   -- Richard Bersohn
 Job cpu time:       0 days  0 hours 11 minutes 40.1 seconds.
 Elapsed time:       0 days  0 hours  0 minutes 44.6 seconds.
 File lengths (MBytes):  RWF=    337 Int=      0 D2E=      0 Chk=     67 Scr=      1
 Normal termination of Gaussian 16 at Fri Jan 23 22:34:28 2026.
