 Entering Gaussian System, Link 0=g16
 Input=DDL-S2-cLR-gs-13.gjf
 Output=DDL-S2-cLR-gs-13.log
 Initial command:
 /data/home/wyx/g16/l1.exe "/scr/tmp/wyx/13106/Gau-1988329.inp" -scrdir="/scr/tmp/wyx/13106/"
 Entering Link 1 = /data/home/wyx/g16/l1.exe PID=   1988330.
  
 Copyright (c) 1988,1990,1992,1993,1995,1998,2003,2009,2016,
            Gaussian, Inc.  All Rights Reserved.
  
 This is part of the Gaussian(R) 16 program.  It is based on
 the Gaussian(R) 09 system (copyright 2009, Gaussian, Inc.),
 the Gaussian(R) 03 system (copyright 2003, Gaussian, Inc.),
 the Gaussian(R) 98 system (copyright 1998, Gaussian, Inc.),
 the Gaussian(R) 94 system (copyright 1995, Gaussian, Inc.),
 the Gaussian 92(TM) system (copyright 1992, Gaussian, Inc.),
 the Gaussian 90(TM) system (copyright 1990, Gaussian, Inc.),
 the Gaussian 88(TM) system (copyright 1988, Gaussian, Inc.),
 the Gaussian 86(TM) system (copyright 1986, Carnegie Mellon
 University), and the Gaussian 82(TM) system (copyright 1983,
 Carnegie Mellon University). Gaussian is a federally registered
 trademark of Gaussian, Inc.
  
 This software contains proprietary and confidential information,
 including trade secrets, belonging to Gaussian, Inc.
  
 This software is provided under written license and may be
 used, copied, transmitted, or stored only in accord with that
 written license.
  
 The following legend is applicable only to US Government
 contracts under FAR:
  
                    RESTRICTED RIGHTS LEGEND
  
 Use, reproduction and disclosure by the US Government is
 subject to restrictions as set forth in subparagraphs (a)
 and (c) of the Commercial Computer Software - Restricted
 Rights clause in FAR 52.227-19.
  
 Gaussian, Inc.
 340 Quinnipiac St., Bldg. 40, Wallingford CT 06492
  
  
 ---------------------------------------------------------------
 Warning -- This program may not be used in any manner that
 competes with the business of Gaussian, Inc. or will provide
 assistance to any competitor of Gaussian, Inc.  The licensee
 of this program is prohibited from giving any competitor of
 Gaussian, Inc. access to this program.  By using this program,
 the user acknowledges that Gaussian, Inc. is engaged in the
 business of creating and licensing software in the field of
 computational chemistry and represents and warrants to the
 licensee that it is not a competitor of Gaussian, Inc. and that
 it will not use this program in any manner prohibited above.
 ---------------------------------------------------------------
  

 Cite this work as:
 Gaussian 16, Revision A.03,
 M. J. Frisch, G. W. Trucks, H. B. Schlegel, G. E. Scuseria, 
 M. A. Robb, J. R. Cheeseman, G. Scalmani, V. Barone, 
 G. A. Petersson, H. Nakatsuji, X. Li, M. Caricato, A. V. Marenich, 
 J. Bloino, B. G. Janesko, R. Gomperts, B. Mennucci, H. P. Hratchian, 
 J. V. Ortiz, A. F. Izmaylov, J. L. Sonnenberg, D. Williams-Young, 
 F. Ding, F. Lipparini, F. Egidi, J. Goings, B. Peng, A. Petrone, 
 T. Henderson, D. Ranasinghe, V. G. Zakrzewski, J. Gao, N. Rega, 
 G. Zheng, W. Liang, M. Hada, M. Ehara, K. Toyota, R. Fukuda, 
 J. Hasegawa, M. Ishida, T. Nakajima, Y. Honda, O. Kitao, H. Nakai, 
 T. Vreven, K. Throssell, J. A. Montgomery, Jr., J. E. Peralta, 
 F. Ogliaro, M. J. Bearpark, J. J. Heyd, E. N. Brothers, K. N. Kudin, 
 V. N. Staroverov, T. A. Keith, R. Kobayashi, J. Normand, 
 K. Raghavachari, A. P. Rendell, J. C. Burant, S. S. Iyengar, 
 J. Tomasi, M. Cossi, J. M. Millam, M. Klene, C. Adamo, R. Cammi, 
 J. W. Ochterski, R. L. Martin, K. Morokuma, O. Farkas, 
 J. B. Foresman, and D. J. Fox, Gaussian, Inc., Wallingford CT, 2016.
 
 ******************************************
 Gaussian 16:  ES64L-G16RevA.03 25-Dec-2016
                23-Jan-2026 
 ******************************************
 %nprocshared=16
 Will use up to   16 processors via shared memory.
 %mem=16GB
 %oldchk=DDL-S2-cLR-13.chk
 %chk=DDL-S2-cLR-gs-13.chk
 Copying data from "DDL-S2-cLR-13.chk" to current chk file "DDL-S2-cLR-gs-13.chk"
 IOpt=  2 FromEx=T IUOpen= 4 IOptOp= 5 NList=   0 IFRang= 0 IUIn= 4 IUOut= 2.
 ----------------------------------------------------------------------
 #p CAM-B3LYP TZVP em=gd3bj scrf=(Solvent=TetraHydroFuran,NonEquilibriu
 m=Read) Geom=Check Guess=Read
 ----------------------------------------------------------------------
 1/29=2,38=1,172=1/1;
 2/12=2,40=1/2;
 3/5=19,7=101,11=2,14=-4,25=1,30=1,70=6002201,72=20,74=-40,116=-2,124=41/1,2,3;
 4/5=1/1;
 5/5=2,38=6,53=20/2;
 6/7=2,8=2,9=2,10=2,28=1/1;
 99/5=1,9=1/99;
 Leave Link    1 at Fri Jan 23 22:52:00 2026, MaxMem=  2147483648 cpu:               0.9 elap:               0.2
 (Enter /data/home/wyx/g16/l101.exe)
 -------------------
 Title Card Required
 -------------------
 Structure from the checkpoint file:  "DDL-S2-cLR-gs-13.chk"
 Charge =  0 Multiplicity = 1
 Z-Matrix found in chk file.
 O,0,2.835855,-1.565559,0.140749
 O,0,-3.420622,-1.623623,0.055146
 N,0,-0.637726,1.511206,-0.348608
 H,0,-0.946975,2.468788,-0.402347
 C,0,-1.238627,-0.757933,-0.221327
 C,0,0.699087,1.302599,-0.098194
 C,0,-1.613688,0.549488,-0.287498
 C,0,-2.222736,-1.829948,-0.107701
 C,0,0.217406,-1.109002,-0.338689
 H,0,0.462263,-1.950341,0.308273
 H,0,0.44144,-1.476815,-1.350144
 C,0,1.151045,0.022948,-0.008595
 C,0,2.513242,-0.394503,0.3205
 C,0,-3.003807,1.089688,-0.302554
 H,0,-3.006462,2.146982,-0.563436
 H,0,-3.628662,0.549404,-1.005601
 H,0,-3.472467,0.975425,0.672511
 C,0,-1.728746,-3.250141,-0.190002
 H,0,-2.575128,-3.921532,-0.289464
 H,0,-1.047331,-3.400214,-1.024576
 H,0,-1.183133,-3.515677,0.715296
 C,0,3.535099,0.542021,0.918365
 H,0,4.049104,1.096088,0.130895
 H,0,3.103883,1.258365,1.612781
 H,0,4.275366,-0.064516,1.434805
 C,0,1.467934,2.579096,0.032955
 H,0,1.538383,2.893104,1.074588
 H,0,2.471446,2.498754,-0.365185
 H,0,0.964558,3.375848,-0.512946
 Recover connectivity data from disk.
 ITRead=  0  0  0  0  0  0  0  0  0  0  0  0  0  0  0  0  0  0  0  0
 ITRead=  0  0  0  0  0  0  0  0  0
 MicOpt= -1 -1 -1 -1 -1 -1 -1 -1 -1 -1 -1 -1 -1 -1 -1 -1 -1 -1 -1 -1
 MicOpt= -1 -1 -1 -1 -1 -1 -1 -1 -1
 NAtoms=     29 NQM=       29 NQMF=       0 NMMI=      0 NMMIF=      0
                NMic=       0 NMicF=      0.
                    Isotopes and Nuclear Properties:
 (Nuclear quadrupole moments (NQMom) in fm**2, nuclear magnetic moments (NMagM)
  in nuclear magnetons)

  Atom         1           2           3           4           5           6           7           8           9          10
 IAtWgt=          16          16          14           1          12          12          12          12          12           1
 AtmWgt=  15.9949146  15.9949146  14.0030740   1.0078250  12.0000000  12.0000000  12.0000000  12.0000000  12.0000000   1.0078250
 NucSpn=           0           0           2           1           0           0           0           0           0           1
 AtZEff=   5.6000000   5.6000000   4.5500000   1.0000000   3.6000000   3.6000000   3.6000000   3.6000000   3.6000000   1.0000000
 NQMom=    0.0000000   0.0000000   2.0440000   0.0000000   0.0000000   0.0000000   0.0000000   0.0000000   0.0000000   0.0000000
 NMagM=    0.0000000   0.0000000   0.4037610   2.7928460   0.0000000   0.0000000   0.0000000   0.0000000   0.0000000   2.7928460
 AtZNuc=   8.0000000   8.0000000   7.0000000   1.0000000   6.0000000   6.0000000   6.0000000   6.0000000   6.0000000   1.0000000

  Atom        11          12          13          14          15          16          17          18          19          20
 IAtWgt=           1          12          12          12           1           1           1          12           1           1
 AtmWgt=   1.0078250  12.0000000  12.0000000  12.0000000   1.0078250   1.0078250   1.0078250  12.0000000   1.0078250   1.0078250
 NucSpn=           1           0           0           0           1           1           1           0           1           1
 AtZEff=   1.0000000   3.6000000   3.6000000   3.6000000   1.0000000   1.0000000   1.0000000   3.6000000   1.0000000   1.0000000
 NQMom=    0.0000000   0.0000000   0.0000000   0.0000000   0.0000000   0.0000000   0.0000000   0.0000000   0.0000000   0.0000000
 NMagM=    2.7928460   0.0000000   0.0000000   0.0000000   2.7928460   2.7928460   2.7928460   0.0000000   2.7928460   2.7928460
 AtZNuc=   1.0000000   6.0000000   6.0000000   6.0000000   1.0000000   1.0000000   1.0000000   6.0000000   1.0000000   1.0000000

  Atom        21          22          23          24          25          26          27          28          29
 IAtWgt=           1          12           1           1           1          12           1           1           1
 AtmWgt=   1.0078250  12.0000000   1.0078250   1.0078250   1.0078250  12.0000000   1.0078250   1.0078250   1.0078250
 NucSpn=           1           0           1           1           1           0           1           1           1
 AtZEff=   1.0000000   3.6000000   1.0000000   1.0000000   1.0000000   3.6000000   1.0000000   1.0000000   1.0000000
 NQMom=    0.0000000   0.0000000   0.0000000   0.0000000   0.0000000   0.0000000   0.0000000   0.0000000   0.0000000
 NMagM=    2.7928460   0.0000000   2.7928460   2.7928460   2.7928460   0.0000000   2.7928460   2.7928460   2.7928460
 AtZNuc=   1.0000000   6.0000000   1.0000000   1.0000000   1.0000000   6.0000000   1.0000000   1.0000000   1.0000000
 Leave Link  101 at Fri Jan 23 22:52:02 2026, MaxMem=  2147483648 cpu:               0.9 elap:               0.1
 (Enter /data/home/wyx/g16/l202.exe)
                          Input orientation:                          
 ---------------------------------------------------------------------
 Center     Atomic      Atomic             Coordinates (Angstroms)
 Number     Number       Type             X           Y           Z
 ---------------------------------------------------------------------
      1          8           0        2.835855   -1.565559    0.140749
      2          8           0       -3.420622   -1.623623    0.055146
      3          7           0       -0.637726    1.511206   -0.348608
      4          1           0       -0.946975    2.468788   -0.402347
      5          6           0       -1.238627   -0.757933   -0.221327
      6          6           0        0.699087    1.302599   -0.098194
      7          6           0       -1.613688    0.549488   -0.287498
      8          6           0       -2.222736   -1.829948   -0.107701
      9          6           0        0.217406   -1.109002   -0.338689
     10          1           0        0.462263   -1.950341    0.308273
     11          1           0        0.441440   -1.476815   -1.350144
     12          6           0        1.151045    0.022948   -0.008595
     13          6           0        2.513242   -0.394503    0.320500
     14          6           0       -3.003807    1.089688   -0.302554
     15          1           0       -3.006462    2.146982   -0.563436
     16          1           0       -3.628662    0.549404   -1.005601
     17          1           0       -3.472467    0.975425    0.672511
     18          6           0       -1.728746   -3.250141   -0.190002
     19          1           0       -2.575128   -3.921532   -0.289464
     20          1           0       -1.047331   -3.400214   -1.024576
     21          1           0       -1.183133   -3.515677    0.715296
     22          6           0        3.535099    0.542021    0.918365
     23          1           0        4.049104    1.096088    0.130895
     24          1           0        3.103883    1.258365    1.612781
     25          1           0        4.275366   -0.064516    1.434805
     26          6           0        1.467934    2.579096    0.032955
     27          1           0        1.538383    2.893104    1.074588
     28          1           0        2.471446    2.498754   -0.365185
     29          1           0        0.964558    3.375848   -0.512946
 ---------------------------------------------------------------------
                    Distance matrix (angstroms):
                    1          2          3          4          5
     1  O    0.000000
     2  O    6.257332   0.000000
     3  N    4.666017   4.211256   0.000000
     4  H    5.557042   4.803754   1.007713   0.000000
     5  C    4.169504   2.363675   2.350803   3.244928   0.000000
     6  C    3.584578   5.055521   1.375970   2.040104   2.831199
     7  C    4.945225   2.846898   1.371546   2.035045   1.361763
     8  C    5.071585   1.226385   3.705888   4.493719   1.459657
     9  C    2.700848   3.695293   2.756236   3.763033   1.502350
    10  H    2.410407   3.904819   3.691040   4.692508   2.143674
    11  H    2.822031   4.112410   3.331057   4.288799   2.147940
    12  C    2.320397   4.859568   2.351642   3.246361   2.523007
    13  C    1.227909   6.065632   3.742731   4.549071   3.808173
    14  C    6.430280   2.768346   2.403776   2.478393   2.556592
    15  H    6.957838   3.843388   2.461965   2.090693   3.417720
    16  H    6.897620   2.427038   3.209735   3.352521   2.834869
    17  H    6.821605   2.671868   3.060311   3.124670   2.965387
    18  C    4.876761   2.359683   4.887321   5.776020   2.540138
    19  H    5.917299   2.472651   5.768160   6.595439   3.435002
    20  H    4.450065   3.155089   4.974611   5.902747   2.768294
    21  H    4.503924   3.003668   5.167099   6.092513   2.912987
    22  C    2.352769   7.336022   4.467327   5.054275   5.077129
    23  H    2.925138   7.949803   4.729548   5.208595   5.614406
    24  H    3.195820   7.300770   4.232093   4.683515   5.127066
    25  H    2.449470   7.972610   5.459115   6.088153   5.798941
    26  C    4.365890   6.446807   2.391607   2.456306   4.304172
    27  H    4.736577   6.784675   2.944585   2.922052   4.766681
    28  H    4.111861   7.203273   3.262281   3.418754   4.938760
    29  H    5.324150   6.674372   2.463983   2.118714   4.693316
                    6          7          8          9         10
     6  C    0.000000
     7  C    2.439660   0.000000
     8  C    4.283689   2.462718   0.000000
     9  C    2.470966   2.471055   2.554880   0.000000
    10  H    3.286780   3.303583   2.719696   1.089204   0.000000
    11  H    3.059232   3.075495   2.960777   1.099327   1.724821
    12  C    1.360074   2.828211   3.850382   1.503980   2.113929
    13  C    2.519250   4.276954   4.967227   2.493171   2.574354
    14  C    3.714636   1.491467   3.028583   3.900225   4.650648
    15  H    3.828907   2.137276   4.078957   4.587512   5.438749
    16  H    4.485544   2.139110   2.905885   4.241146   4.970982
    17  H    4.254749   2.134970   3.168703   4.356894   4.916795
    18  C    5.160450   3.802621   1.505904   2.897256   2.595819
    19  H    6.168356   4.573225   2.128836   3.963710   3.669963
    20  H    5.101432   4.057609   2.165173   2.705486   2.481429
    21  H    5.236440   4.209102   2.144710   2.977327   2.307222
    22  C    3.107223   5.288116   6.311237   3.913202   4.003299
    23  H    3.364185   5.704475   6.924925   4.445767   4.709312
    24  H    2.951684   5.135080   6.393012   4.212412   4.356110
    25  H    4.124180   6.166384   6.908068   4.550085   4.400587
    26  C    1.495918   3.703835   5.751565   3.912034   4.647900
    27  H    2.146984   4.157327   6.152320   4.445130   5.020382
    28  H    2.154838   4.527029   6.390564   4.254092   4.927962
    29  H    2.130928   3.832296   6.117465   4.549998   5.412485
                   11         12         13         14         15
    11  H    0.000000
    12  C    2.133678   0.000000
    13  C    2.873119   1.462241   0.000000
    14  C    4.422003   4.299668   5.747073   0.000000
    15  H    5.063481   4.701514   6.140653   1.089007   0.000000
    16  H    4.559606   4.910883   6.353935   1.084724   1.770564
    17  H    5.042151   4.769484   6.150555   1.087865   1.765580
    18  C    3.033203   4.363395   5.139041   4.524662   5.558862
    19  H    4.025092   5.433431   6.221214   5.029539   6.089989
    20  H    2.453955   4.193222   4.849867   4.950589   5.901036
    21  H    3.325994   4.300497   4.853945   5.055716   6.084849
    22  C    4.335038   2.610058   1.509540   6.674419   6.896641
    23  H    4.672103   3.093515   2.148647   7.066221   7.167111
    24  H    4.832053   2.822887   2.179637   6.403190   6.546898
    25  H    4.944645   3.442737   2.110841   7.572117   7.868209
    26  C    4.406480   2.576051   3.165066   4.725185   4.534603
    27  H    5.116522   3.092105   3.511034   5.077432   4.888296
    28  H    4.571238   2.828468   2.973692   5.654006   5.492770
    29  H    4.952059   3.395745   4.160361   4.584617   4.157122
                   16         17         18         19         20
    16  H    0.000000
    17  H    1.738376   0.000000
    18  C    4.325670   4.651871   0.000000
    19  H    4.648877   5.070582   1.084906   0.000000
    20  H    4.718380   5.282765   1.087824   1.773789   0.000000
    21  H    5.046482   5.041119   1.089847   1.764061   1.748979
    22  C    7.417626   7.025259   6.581568   7.662704   6.349402
    23  H    7.780654   7.542012   7.237143   8.320677   6.893874
    24  H    7.258492   6.649251   6.850617   7.918399   6.774259
    25  H    8.294947   7.854393   6.988388   8.048537   6.745853
    26  C    5.583327   5.233388   6.651953   7.662145   6.572448
    27  H    6.043051   5.380314   7.071971   8.075944   7.120271
    28  H    6.435947   6.223138   7.121945   8.166622   6.900320
    29  H    5.415641   5.182136   7.159742   8.113635   7.086923
                   21         22         23         24         25
    21  H    0.000000
    22  C    6.226384   0.000000
    23  H    6.999015   1.091467   0.000000
    24  H    6.478847   1.086881   1.765152   0.000000
    25  H    6.497955   1.087471   1.760221   1.775968   0.000000
    26  C    6.681317   3.034270   2.978480   2.629926   4.103114
    27  H    6.971959   3.088506   3.228551   2.326545   4.045782
    28  H    7.120166   2.570537   2.168541   2.418861   3.614477
    29  H    7.322177   4.084961   3.889249   3.684991   5.156674
                   26         27         28         29
    26  C    0.000000
    27  H    1.090213   0.000000
    28  H    1.082593   1.760416   0.000000
    29  H    1.089132   1.755728   1.749811   0.000000
 Stoichiometry    C11H15NO2
 Framework group  C1[X(C11H15NO2)]
 Deg. of freedom    81
 Full point group                 C1      NOp   1
 RotChk:  IX=0 Diff= 2.45D-16
 Largest Abelian subgroup         C1      NOp   1
 Largest concise Abelian subgroup C1      NOp   1
                         Standard orientation:                         
 ---------------------------------------------------------------------
 Center     Atomic      Atomic             Coordinates (Angstroms)
 Number     Number       Type             X           Y           Z
 ---------------------------------------------------------------------
      1          8           0        2.287942   -2.278326   -0.203039
      2          8           0       -3.597513   -0.247166    0.421471
      3          7           0        0.024430    1.801840   -0.224890
      4          1           0        0.052354    2.809161   -0.221485
      5          6           0       -1.290383   -0.141604   -0.081486
      6          6           0        1.230544    1.146024   -0.132764
      7          6           0       -1.207382    1.217612   -0.075044
      8          6           0       -2.561781   -0.830058    0.118955
      9          6           0       -0.057240   -0.949286   -0.371425
     10          1           0       -0.047287   -1.861058    0.224342
     11          1           0       -0.072041   -1.309836   -1.409839
     12          6           0        1.231225   -0.214021   -0.124045
     13          6           0        2.398528   -1.079522    0.038628
     14          6           0       -2.328227    2.189257    0.080156
     15          1           0       -2.000249    3.200780   -0.154768
     16          1           0       -3.165241    1.930354   -0.559376
     17          1           0       -2.708566    2.179596    1.099321
     18          6           0       -2.586214   -2.326139   -0.051021
     19          1           0       -3.614811   -2.670657   -0.068826
     20          1           0       -2.081828   -2.644381   -0.960790
     21          1           0       -2.074910   -2.811347    0.780188
     22          6           0        3.730330   -0.573454    0.537536
     23          1           0        4.320025   -0.176083   -0.290508
     24          1           0        3.637131    0.202889    1.292464
     25          1           0        4.270263   -1.421227    0.952681
     26          6           0        2.393676    2.083971   -0.060998
     27          1           0        2.669038    2.294150    0.972716
     28          1           0        3.266508    1.698289   -0.572290
     29          1           0        2.136712    3.033744   -0.528020
 ---------------------------------------------------------------------
 Rotational constants (GHZ):           1.0790756           0.4907163           0.3463919
 Leave Link  202 at Fri Jan 23 22:52:02 2026, MaxMem=  2147483648 cpu:               0.0 elap:               0.0
 (Enter /data/home/wyx/g16/l301.exe)
 Standard basis: TZVP (5D, 7F)
 Ernie: Thresh=  0.10000D-02 Tol=  0.10000D-05 Strict=F.
 There are   370 symmetry adapted cartesian basis functions of A   symmetry.
 There are   356 symmetry adapted basis functions of A   symmetry.
   356 basis functions,   610 primitive gaussians,   370 cartesian basis functions
    52 alpha electrons       52 beta electrons
       nuclear repulsion energy       900.8120873123 Hartrees.
 IExCor=20419 DFT=T Ex+Corr=CAM-B3LYP ExCW=0 ScaHFX=  1.000000
 ScaDFX=  1.000000  1.000000  1.000000  0.810000 ScalE2=  1.000000  1.000000
 IRadAn=      5 IRanWt=     -1 IRanGd=            0 ICorTp=0 IEmpDi=141
 HFx  wShort=  0.000000 wLong=  0.330000 cFull=  0.190000 cShort=  0.000000 cLong=  0.460000
 DFx  wShort=  0.000000 wLong=  0.330000 cFull=  0.190000 cShort=  0.000000 cLong=  0.460000
 NAtoms=   29 NActive=   29 NUniq=   29 SFac= 1.00D+00 NAtFMM=   60 NAOKFM=F Big=F
 Integral buffers will be    131072 words long.
 Raffenetti 2 integral format.
 Two-electron integral symmetry is turned on.
 R6Disp:  Grimme-D3(BJ) Dispersion energy=       -0.0262006212 Hartrees.
 Nuclear repulsion after empirical dispersion term =      900.7858866911 Hartrees.
 ------------------------------------------------------------------------------
 Polarizable Continuum Model (PCM)
 =================================
 Model                : PCM.
 Atomic radii         : UFF (Universal Force Field).
 Polarization charges : Total charges.
 Charge compensation  : None.
 Solution method      : On-the-fly selection.
 Cavity type          : Scaled VdW (van der Waals Surface) (Alpha=1.100).
 Cavity algorithm     : GePol (No added spheres)
                        Default sphere list used, NSphG=   29.
                        Lebedev-Laikov grids with approx.  5.0 points / Ang**2.
                        Smoothing algorithm: York/Karplus (Gamma=1.0000).
                        Polarization charges: spherical gaussians, with
                                              point-specific exponents (IZeta= 3).
                        Self-potential: point-specific (ISelfS= 7).
                        Self-field    : sphere-specific E.n sum rule (ISelfD= 2).
 Solvent              : TetraHydroFuran, Eps=   7.425700 Eps(inf)=   1.974025
 ------------------------------------------------------------------------------
 GePol: Number of generator spheres                  =      29
 GePol: Total number of spheres                      =      29
 GePol: Number of exposed spheres                    =      29 (100.00%)
 GePol: Number of points                             =    2097
 GePol: Average weight of points                     =       0.13
 GePol: Minimum weight of points                     =   0.39D-10
 GePol: Maximum weight of points                     =    0.20577
 GePol: Number of points with low weight             =     145
 GePol: Fraction of low-weight points (<1% of avg)   =       6.91%
 GePol: Cavity surface area                          =    268.555 Ang**2
 GePol: Cavity volume                                =    286.583 Ang**3
 Leave Link  301 at Fri Jan 23 22:52:03 2026, MaxMem=  2147483648 cpu:               0.6 elap:               0.0
 (Enter /data/home/wyx/g16/l302.exe)
 NPDir=0 NMtPBC=     1 NCelOv=     1 NCel=       1 NClECP=     1 NCelD=      1
         NCelK=      1 NCelE2=     1 NClLst=     1 CellRange=     0.0.
 One-electron integrals computed using PRISM.
 One-electron integral symmetry used in STVInt
 NBasis=   356 RedAO= T EigKep=  4.71D-05  NBF=   356
 NBsUse=   356 1.00D-06 EigRej= -1.00D+00 NBFU=   356
 Precomputing XC quadrature grid using
 IXCGrd= 4 IRadAn=           5 IRanWt=          -1 IRanGd=           0 AccXCQ= 0.00D+00.
 Generated NRdTot=       0 NPtTot=           0 NUsed=           0 NTot=          32
 NSgBfM=   366   366   366   366   366 MxSgAt=    29 MxSgA2=    29.
 Leave Link  302 at Fri Jan 23 22:52:03 2026, MaxMem=  2147483648 cpu:               3.1 elap:               0.2
 (Enter /data/home/wyx/g16/l303.exe)
 DipDrv:  MaxL=1.
 Leave Link  303 at Fri Jan 23 22:52:03 2026, MaxMem=  2147483648 cpu:               0.6 elap:               0.0
 (Enter /data/home/wyx/g16/l401.exe)
 Initial guess from the checkpoint file:  "DDL-S2-cLR-gs-13.chk"
 B after Tr=     0.000000   -0.000000    0.000000
         Rot=    1.000000   -0.000000   -0.000000   -0.000000 Ang=   0.00 deg.
 Guess basis will be translated and rotated to current coordinates.
 JPrj=2 DoOrth=T DoCkMO=T.
 Leave Link  401 at Fri Jan 23 22:52:03 2026, MaxMem=  2147483648 cpu:               2.2 elap:               0.2
 (Enter /data/home/wyx/g16/l502.exe)
 Integral symmetry usage will be decided dynamically.
 Closed shell SCF:
 Using DIIS extrapolation, IDIIS=  1040.
 NGot=  2147483648 LenX=  2147200095 LenY=  2147062754
 Requested convergence on RMS density matrix=1.00D-08 within 128 cycles.
 Requested convergence on MAX density matrix=1.00D-06.
 Requested convergence on             energy=1.00D-06.
 No special actions if energy rises.
 Fock matrices will be formed incrementally for  20 cycles.

 Cycle   1  Pass 1  IDiag  1:
 FoFJK:  IHMeth= 1 ICntrl=       0 DoSepK=T KAlg= 0 I1Cent=           0 FoldK=F
 IRaf=         1 NMat=       1 IRICut=       1 DoRegI=T DoRafI=F ISym2E= 0 IDoP0=0 IntGTp=1.
 FoFCou: FMM=F IPFlag=           0 FMFlag=      100000 FMFlg1=           0
         NFxFlg=           0 DoJE=T BraDBF=F KetDBF=F FulRan=T
         wScrn=  0.000000 ICntrl=       500 IOpCl=  0 I1Cent=           0 NGrid=           0
         NMat0=    1 NMatS0=      1 NMatT0=    0 NMatD0=    1 NMtDS0=    0 NMtDT0=    0
 Symmetry not used in FoFCou.
 Inv3:  Mode=1 IEnd=    13192227.
 Iteration    1 A*A^-1 deviation from unit magnitude is 3.66D-15 for     75.
 Iteration    1 A*A^-1 deviation from orthogonality  is 2.44D-15 for   2023   1555.
 Iteration    1 A^-1*A deviation from unit magnitude is 3.22D-15 for     75.
 Iteration    1 A^-1*A deviation from orthogonality  is 2.35D-15 for   1735   1505.
 NEqPCM:  Using non-equilibrium solvation (IEInf=1, Eps=   7.4257, EpsInf=   1.9740)
 Inv3:  Mode=1 IEnd=    13192227.
 Iteration    1 A*A^-1 deviation from unit magnitude is 4.00D-15 for    382.
 Iteration    1 A*A^-1 deviation from orthogonality  is 1.67D-15 for   1489   1221.
 Iteration    1 A^-1*A deviation from unit magnitude is 3.44D-15 for    382.
 Iteration    1 A^-1*A deviation from orthogonality  is 1.52D-15 for   1623   1336.
 E= -633.327088149868    
 DIIS: error= 4.44D-04 at cycle   1 NSaved=   1.
 NSaved= 1 IEnMin= 1 EnMin= -633.327088149868     IErMin= 1 ErrMin= 4.44D-04
 ErrMax= 4.44D-04  0.00D+00 EMaxC= 1.00D-01 BMatC= 4.51D-05 BMatP= 4.51D-05
 IDIUse=3 WtCom= 9.96D-01 WtEn= 4.44D-03
 Coeff-Com:  0.100D+01
 Coeff-En:   0.100D+01
 Coeff:      0.100D+01
 Gap=     0.236 Goal=   None    Shift=    0.000
 RMSDP=2.64D-04 MaxDP=1.34D-02              OVMax= 7.33D-03

 Cycle   2  Pass 1  IDiag  1:
 RMSU=  2.62D-04    CP:  1.00D+00
 E= -633.327171347972     Delta-E=       -0.000083198105 Rises=F Damp=F
 DIIS: error= 3.30D-04 at cycle   2 NSaved=   2.
 NSaved= 2 IEnMin= 2 EnMin= -633.327171347972     IErMin= 2 ErrMin= 3.30D-04
 ErrMax= 3.30D-04  0.00D+00 EMaxC= 1.00D-01 BMatC= 4.26D-05 BMatP= 4.51D-05
 IDIUse=3 WtCom= 9.97D-01 WtEn= 3.30D-03
 Coeff-Com:  0.490D+00 0.510D+00
 Coeff-En:   0.000D+00 0.100D+01
 Coeff:      0.488D+00 0.512D+00
 Gap=     0.236 Goal=   None    Shift=    0.000
 RMSDP=6.96D-05 MaxDP=3.55D-03 DE=-8.32D-05 OVMax= 1.71D-03

 Cycle   3  Pass 1  IDiag  1:
 RMSU=  6.51D-05    CP:  1.00D+00  9.76D-01
 E= -633.327204110891     Delta-E=       -0.000032762919 Rises=F Damp=F
 DIIS: error= 1.28D-04 at cycle   3 NSaved=   3.
 NSaved= 3 IEnMin= 3 EnMin= -633.327204110891     IErMin= 3 ErrMin= 1.28D-04
 ErrMax= 1.28D-04  0.00D+00 EMaxC= 1.00D-01 BMatC= 5.78D-06 BMatP= 4.26D-05
 IDIUse=3 WtCom= 9.99D-01 WtEn= 1.28D-03
 Coeff-Com:  0.613D-01 0.247D+00 0.691D+00
 Coeff-En:   0.000D+00 0.608D-02 0.994D+00
 Coeff:      0.612D-01 0.247D+00 0.692D+00
 Gap=     0.236 Goal=   None    Shift=    0.000
 RMSDP=1.91D-05 MaxDP=9.61D-04 DE=-3.28D-05 OVMax= 1.05D-03

 Cycle   4  Pass 1  IDiag  1:
 RMSU=  1.47D-05    CP:  1.00D+00  9.98D-01  1.17D+00
 E= -633.327209007088     Delta-E=       -0.000004896197 Rises=F Damp=F
 DIIS: error= 3.89D-05 at cycle   4 NSaved=   4.
 NSaved= 4 IEnMin= 4 EnMin= -633.327209007088     IErMin= 4 ErrMin= 3.89D-05
 ErrMax= 3.89D-05  0.00D+00 EMaxC= 1.00D-01 BMatC= 4.26D-07 BMatP= 5.78D-06
 IDIUse=1 WtCom= 1.00D+00 WtEn= 0.00D+00
 Coeff-Com: -0.144D-01 0.218D-01 0.208D+00 0.785D+00
 Coeff:     -0.144D-01 0.218D-01 0.208D+00 0.785D+00
 Gap=     0.236 Goal=   None    Shift=    0.000
 RMSDP=1.25D-05 MaxDP=6.22D-04 DE=-4.90D-06 OVMax= 6.29D-04

 Cycle   5  Pass 1  IDiag  1:
 RMSU=  6.73D-06    CP:  1.00D+00  1.01D+00  1.31D+00  1.08D+00
 E= -633.327209606666     Delta-E=       -0.000000599578 Rises=F Damp=F
 DIIS: error= 1.43D-05 at cycle   5 NSaved=   5.
 NSaved= 5 IEnMin= 5 EnMin= -633.327209606666     IErMin= 5 ErrMin= 1.43D-05
 ErrMax= 1.43D-05  0.00D+00 EMaxC= 1.00D-01 BMatC= 1.18D-07 BMatP= 4.26D-07
 IDIUse=1 WtCom= 1.00D+00 WtEn= 0.00D+00
 Coeff-Com: -0.134D-01-0.284D-01-0.233D-02 0.360D+00 0.684D+00
 Coeff:     -0.134D-01-0.284D-01-0.233D-02 0.360D+00 0.684D+00
 Gap=     0.236 Goal=   None    Shift=    0.000
 RMSDP=4.91D-06 MaxDP=2.12D-04 DE=-6.00D-07 OVMax= 2.30D-04

 Cycle   6  Pass 1  IDiag  1:
 RMSU=  2.19D-06    CP:  1.00D+00  1.01D+00  1.37D+00  1.24D+00  1.07D+00
 E= -633.327209782608     Delta-E=       -0.000000175942 Rises=F Damp=F
 DIIS: error= 1.03D-05 at cycle   6 NSaved=   6.
 NSaved= 6 IEnMin= 6 EnMin= -633.327209782608     IErMin= 6 ErrMin= 1.03D-05
 ErrMax= 1.03D-05  0.00D+00 EMaxC= 1.00D-01 BMatC= 1.24D-08 BMatP= 1.18D-07
 IDIUse=1 WtCom= 1.00D+00 WtEn= 0.00D+00
 Coeff-Com: -0.912D-03-0.149D-01-0.240D-01 0.558D-02 0.189D+00 0.845D+00
 Coeff:     -0.912D-03-0.149D-01-0.240D-01 0.558D-02 0.189D+00 0.845D+00
 Gap=     0.236 Goal=   None    Shift=    0.000
 RMSDP=2.18D-06 MaxDP=7.83D-05 DE=-1.76D-07 OVMax= 1.85D-04

 Cycle   7  Pass 1  IDiag  1:
 RMSU=  9.78D-07    CP:  1.00D+00  1.01D+00  1.39D+00  1.31D+00  1.17D+00
                    CP:  1.22D+00
 E= -633.327209816597     Delta-E=       -0.000000033989 Rises=F Damp=F
 DIIS: error= 4.13D-06 at cycle   7 NSaved=   7.
 NSaved= 7 IEnMin= 7 EnMin= -633.327209816597     IErMin= 7 ErrMin= 4.13D-06
 ErrMax= 4.13D-06  0.00D+00 EMaxC= 1.00D-01 BMatC= 5.92D-09 BMatP= 1.24D-08
 IDIUse=1 WtCom= 1.00D+00 WtEn= 0.00D+00
 Coeff-Com:  0.228D-02-0.342D-02-0.801D-02-0.682D-01-0.814D-01 0.432D+00
 Coeff-Com:  0.726D+00
 Coeff:      0.228D-02-0.342D-02-0.801D-02-0.682D-01-0.814D-01 0.432D+00
 Coeff:      0.726D+00
 Gap=     0.236 Goal=   None    Shift=    0.000
 RMSDP=1.01D-06 MaxDP=4.27D-05 DE=-3.40D-08 OVMax= 9.37D-05

 Cycle   8  Pass 1  IDiag  1:
 RMSU=  3.70D-07    CP:  1.00D+00  1.01D+00  1.40D+00  1.34D+00  1.23D+00
                    CP:  1.43D+00  1.11D+00
 E= -633.327209827367     Delta-E=       -0.000000010770 Rises=F Damp=F
 DIIS: error= 1.45D-06 at cycle   8 NSaved=   8.
 NSaved= 8 IEnMin= 8 EnMin= -633.327209827367     IErMin= 8 ErrMin= 1.45D-06
 ErrMax= 1.45D-06  0.00D+00 EMaxC= 1.00D-01 BMatC= 5.78D-10 BMatP= 5.92D-09
 IDIUse=1 WtCom= 1.00D+00 WtEn= 0.00D+00
 Coeff-Com:  0.966D-03 0.416D-03 0.207D-02-0.226D-01-0.731D-01 0.111D-01
 Coeff-Com:  0.238D+00 0.844D+00
 Coeff:      0.966D-03 0.416D-03 0.207D-02-0.226D-01-0.731D-01 0.111D-01
 Coeff:      0.238D+00 0.844D+00
 Gap=     0.236 Goal=   None    Shift=    0.000
 RMSDP=4.23D-07 MaxDP=1.40D-05 DE=-1.08D-08 OVMax= 3.80D-05

 Cycle   9  Pass 1  IDiag  1:
 RMSU=  1.25D-07    CP:  1.00D+00  1.01D+00  1.40D+00  1.35D+00  1.23D+00
                    CP:  1.54D+00  1.30D+00  1.16D+00
 E= -633.327209828714     Delta-E=       -0.000000001347 Rises=F Damp=F
 DIIS: error= 5.48D-07 at cycle   9 NSaved=   9.
 NSaved= 9 IEnMin= 9 EnMin= -633.327209828714     IErMin= 9 ErrMin= 5.48D-07
 ErrMax= 5.48D-07  0.00D+00 EMaxC= 1.00D-01 BMatC= 6.84D-11 BMatP= 5.78D-10
 IDIUse=1 WtCom= 1.00D+00 WtEn= 0.00D+00
 Coeff-Com:  0.365D-04 0.516D-03 0.191D-02 0.306D-02-0.174D-01-0.583D-01
 Coeff-Com: -0.645D-02 0.324D+00 0.753D+00
 Coeff:      0.365D-04 0.516D-03 0.191D-02 0.306D-02-0.174D-01-0.583D-01
 Coeff:     -0.645D-02 0.324D+00 0.753D+00
 Gap=     0.236 Goal=   None    Shift=    0.000
 RMSDP=1.30D-07 MaxDP=6.19D-06 DE=-1.35D-09 OVMax= 1.20D-05

 Cycle  10  Pass 1  IDiag  1:
 RMSU=  5.45D-08    CP:  1.00D+00  1.01D+00  1.40D+00  1.35D+00  1.23D+00
                    CP:  1.57D+00  1.36D+00  1.26D+00  9.81D-01
 E= -633.327209828849     Delta-E=       -0.000000000135 Rises=F Damp=F
 DIIS: error= 1.46D-07 at cycle  10 NSaved=  10.
 NSaved=10 IEnMin=10 EnMin= -633.327209828849     IErMin=10 ErrMin= 1.46D-07
 ErrMax= 1.46D-07  0.00D+00 EMaxC= 1.00D-01 BMatC= 1.29D-11 BMatP= 6.84D-11
 IDIUse=1 WtCom= 1.00D+00 WtEn= 0.00D+00
 Coeff-Com: -0.726D-04 0.261D-03 0.269D-03 0.346D-02 0.885D-03-0.238D-01
 Coeff-Com: -0.254D-01 0.164D-01 0.296D+00 0.732D+00
 Coeff:     -0.726D-04 0.261D-03 0.269D-03 0.346D-02 0.885D-03-0.238D-01
 Coeff:     -0.254D-01 0.164D-01 0.296D+00 0.732D+00
 Gap=     0.236 Goal=   None    Shift=    0.000
 RMSDP=4.29D-08 MaxDP=1.45D-06 DE=-1.35D-10 OVMax= 3.02D-06

 Cycle  11  Pass 1  IDiag  1:
 RMSU=  1.65D-08    CP:  1.00D+00  1.01D+00  1.40D+00  1.35D+00  1.23D+00
                    CP:  1.58D+00  1.38D+00  1.29D+00  1.12D+00  1.08D+00
 E= -633.327209828866     Delta-E=       -0.000000000017 Rises=F Damp=F
 DIIS: error= 9.28D-08 at cycle  11 NSaved=  11.
 NSaved=11 IEnMin=11 EnMin= -633.327209828866     IErMin=11 ErrMin= 9.28D-08
 ErrMax= 9.28D-08  0.00D+00 EMaxC= 1.00D-01 BMatC= 2.55D-12 BMatP= 1.29D-11
 IDIUse=1 WtCom= 1.00D+00 WtEn= 0.00D+00
 Coeff-Com: -0.481D-04 0.828D-04-0.249D-03 0.137D-02 0.362D-02-0.151D-02
 Coeff-Com: -0.976D-02-0.523D-01 0.222D-01 0.341D+00 0.695D+00
 Coeff:     -0.481D-04 0.828D-04-0.249D-03 0.137D-02 0.362D-02-0.151D-02
 Coeff:     -0.976D-02-0.523D-01 0.222D-01 0.341D+00 0.695D+00
 Gap=     0.236 Goal=   None    Shift=    0.000
 RMSDP=2.21D-08 MaxDP=1.44D-06 DE=-1.71D-11 OVMax= 1.01D-06

 Cycle  12  Pass 1  IDiag  1:
 RMSU=  8.75D-09    CP:  1.00D+00  1.01D+00  1.40D+00  1.35D+00  1.23D+00
                    CP:  1.58D+00  1.38D+00  1.30D+00  1.14D+00  1.25D+00
                    CP:  9.54D-01
 E= -633.327209828872     Delta-E=       -0.000000000006 Rises=F Damp=F
 DIIS: error= 3.12D-08 at cycle  12 NSaved=  12.
 NSaved=12 IEnMin=12 EnMin= -633.327209828872     IErMin=12 ErrMin= 3.12D-08
 ErrMax= 3.12D-08  0.00D+00 EMaxC= 1.00D-01 BMatC= 3.62D-13 BMatP= 2.55D-12
 IDIUse=1 WtCom= 1.00D+00 WtEn= 0.00D+00
 Coeff-Com: -0.114D-04 0.196D-04-0.145D-03 0.123D-03 0.138D-02 0.240D-02
 Coeff-Com:  0.962D-04-0.241D-01-0.251D-01 0.355D-01 0.312D+00 0.698D+00
 Coeff:     -0.114D-04 0.196D-04-0.145D-03 0.123D-03 0.138D-02 0.240D-02
 Coeff:      0.962D-04-0.241D-01-0.251D-01 0.355D-01 0.312D+00 0.698D+00
 Gap=     0.236 Goal=   None    Shift=    0.000
 RMSDP=5.32D-09 MaxDP=2.62D-07 DE=-5.80D-12 OVMax= 3.79D-07

 Error on total polarization charges =  0.00916
 SCF Done:  E(RCAM-B3LYP) =  -633.327209829     A.U. after   12 cycles
            NFock= 12  Conv=0.53D-08     -V/T= 2.0041
 KE= 6.307372479460D+02 PE=-3.277734343309D+03 EE= 1.112883998843D+03
 Leave Link  502 at Fri Jan 23 22:52:53 2026, MaxMem=  2147483648 cpu:             783.5 elap:              49.8
 (Enter /data/home/wyx/g16/l601.exe)
 Copying SCF densities to generalized density rwf, IOpCl= 0 IROHF=0.

 **********************************************************************

            Population analysis using the SCF density.

 **********************************************************************

 Orbital symmetries:
       Occupied  (A) (A) (A) (A) (A) (A) (A) (A) (A) (A) (A) (A)
                 (A) (A) (A) (A) (A) (A) (A) (A) (A) (A) (A) (A)
                 (A) (A) (A) (A) (A) (A) (A) (A) (A) (A) (A) (A)
                 (A) (A) (A) (A) (A) (A) (A) (A) (A) (A) (A) (A)
                 (A) (A) (A) (A)
       Virtual   (A) (A) (A) (A) (A) (A) (A) (A) (A) (A) (A) (A)
                 (A) (A) (A) (A) (A) (A) (A) (A) (A) (A) (A) (A)
                 (A) (A) (A) (A) (A) (A) (A) (A) (A) (A) (A) (A)
                 (A) (A) (A) (A) (A) (A) (A) (A) (A) (A) (A) (A)
                 (A) (A) (A) (A) (A) (A) (A) (A) (A) (A) (A) (A)
                 (A) (A) (A) (A) (A) (A) (A) (A) (A) (A) (A) (A)
                 (A) (A) (A) (A) (A) (A) (A) (A) (A) (A) (A) (A)
                 (A) (A) (A) (A) (A) (A) (A) (A) (A) (A) (A) (A)
                 (A) (A) (A) (A) (A) (A) (A) (A) (A) (A) (A) (A)
                 (A) (A) (A) (A) (A) (A) (A) (A) (A) (A) (A) (A)
                 (A) (A) (A) (A) (A) (A) (A) (A) (A) (A) (A) (A)
                 (A) (A) (A) (A) (A) (A) (A) (A) (A) (A) (A) (A)
                 (A) (A) (A) (A) (A) (A) (A) (A) (A) (A) (A) (A)
                 (A) (A) (A) (A) (A) (A) (A) (A) (A) (A) (A) (A)
                 (A) (A) (A) (A) (A) (A) (A) (A) (A) (A) (A) (A)
                 (A) (A) (A) (A) (A) (A) (A) (A) (A) (A) (A) (A)
                 (A) (A) (A) (A) (A) (A) (A) (A) (A) (A) (A) (A)
                 (A) (A) (A) (A) (A) (A) (A) (A) (A) (A) (A) (A)
                 (A) (A) (A) (A) (A) (A) (A) (A) (A) (A) (A) (A)
                 (A) (A) (A) (A) (A) (A) (A) (A) (A) (A) (A) (A)
                 (A) (A) (A) (A) (A) (A) (A) (A) (A) (A) (A) (A)
                 (A) (A) (A) (A) (A) (A) (A) (A) (A) (A) (A) (A)
                 (A) (A) (A) (A) (A) (A) (A) (A) (A) (A) (A) (A)
                 (A) (A) (A) (A) (A) (A) (A) (A) (A) (A) (A) (A)
                 (A) (A) (A) (A) (A) (A) (A) (A) (A) (A) (A) (A)
                 (A) (A) (A) (A)
 The electronic state is 1-A.
 Alpha  occ. eigenvalues --  -19.18113 -19.16972 -14.44399 -10.33680 -10.32713
 Alpha  occ. eigenvalues --  -10.32403 -10.31572 -10.26292 -10.25348 -10.24867
 Alpha  occ. eigenvalues --  -10.24816 -10.24574 -10.24551 -10.23327  -1.12202
 Alpha  occ. eigenvalues --   -1.11156  -1.07871  -0.91483  -0.90422  -0.83948
 Alpha  occ. eigenvalues --   -0.82642  -0.81779  -0.78544  -0.74167  -0.71466
 Alpha  occ. eigenvalues --   -0.68697  -0.61658  -0.58356  -0.56969  -0.55344
 Alpha  occ. eigenvalues --   -0.54738  -0.53998  -0.52649  -0.51983  -0.50973
 Alpha  occ. eigenvalues --   -0.50068  -0.49499  -0.49203  -0.48737  -0.48226
 Alpha  occ. eigenvalues --   -0.47019  -0.45308  -0.45007  -0.43708  -0.43280
 Alpha  occ. eigenvalues --   -0.42508  -0.42191  -0.41748  -0.32959  -0.32389
 Alpha  occ. eigenvalues --   -0.30923  -0.26127
 Alpha virt. eigenvalues --   -0.02519   0.02467   0.06046   0.07969   0.08330
 Alpha virt. eigenvalues --    0.09814   0.10781   0.11847   0.12502   0.13362
 Alpha virt. eigenvalues --    0.14049   0.14697   0.15532   0.16115   0.16922
 Alpha virt. eigenvalues --    0.17558   0.17671   0.17998   0.18060   0.19231
 Alpha virt. eigenvalues --    0.19827   0.22029   0.22549   0.23252   0.23529
 Alpha virt. eigenvalues --    0.23752   0.24764   0.25422   0.26068   0.26459
 Alpha virt. eigenvalues --    0.26820   0.27372   0.28742   0.28843   0.30099
 Alpha virt. eigenvalues --    0.31485   0.31801   0.32568   0.33442   0.34199
 Alpha virt. eigenvalues --    0.35217   0.35853   0.36704   0.37970   0.38704
 Alpha virt. eigenvalues --    0.39956   0.40779   0.41506   0.41973   0.42509
 Alpha virt. eigenvalues --    0.43876   0.44306   0.45327   0.45862   0.46370
 Alpha virt. eigenvalues --    0.47155   0.47528   0.48015   0.48206   0.48885
 Alpha virt. eigenvalues --    0.49320   0.50385   0.50889   0.51315   0.51673
 Alpha virt. eigenvalues --    0.52854   0.53112   0.53354   0.54162   0.54235
 Alpha virt. eigenvalues --    0.54396   0.55724   0.56111   0.56497   0.58080
 Alpha virt. eigenvalues --    0.58659   0.58773   0.60574   0.61055   0.62429
 Alpha virt. eigenvalues --    0.63283   0.65631   0.66012   0.66551   0.67817
 Alpha virt. eigenvalues --    0.68549   0.70121   0.71004   0.72087   0.72855
 Alpha virt. eigenvalues --    0.73136   0.73722   0.74788   0.75803   0.77598
 Alpha virt. eigenvalues --    0.78144   0.79704   0.82122   0.84501   0.84736
 Alpha virt. eigenvalues --    0.89511   0.93643   0.99587   1.01432   1.24199
 Alpha virt. eigenvalues --    1.25398   1.26875   1.27780   1.29263   1.31331
 Alpha virt. eigenvalues --    1.32449   1.32979   1.33875   1.34892   1.35803
 Alpha virt. eigenvalues --    1.36535   1.37454   1.38010   1.38988   1.39752
 Alpha virt. eigenvalues --    1.39941   1.40136   1.40972   1.41536   1.41612
 Alpha virt. eigenvalues --    1.43153   1.43977   1.44531   1.45053   1.47012
 Alpha virt. eigenvalues --    1.47992   1.48926   1.49546   1.50270   1.50936
 Alpha virt. eigenvalues --    1.51985   1.52246   1.53527   1.54446   1.57666
 Alpha virt. eigenvalues --    1.58288   1.60522   1.60594   1.61228   1.62117
 Alpha virt. eigenvalues --    1.62558   1.63348   1.64076   1.65086   1.65732
 Alpha virt. eigenvalues --    1.66817   1.67185   1.67456   1.68227   1.68548
 Alpha virt. eigenvalues --    1.68717   1.69711   1.70339   1.71740   1.72077
 Alpha virt. eigenvalues --    1.73345   1.75027   1.76012   1.76777   1.78724
 Alpha virt. eigenvalues --    1.80029   1.82881   1.84053   1.85821   1.86488
 Alpha virt. eigenvalues --    1.86959   1.87622   1.88582   1.88795   1.90567
 Alpha virt. eigenvalues --    1.91226   1.94396   1.94944   1.98270   1.99689
 Alpha virt. eigenvalues --    2.00860   2.03642   2.04499   2.06357   2.09336
 Alpha virt. eigenvalues --    2.11085   2.12783   2.14428   2.16849   2.19346
 Alpha virt. eigenvalues --    2.20218   2.21109   2.21640   2.22621   2.26125
 Alpha virt. eigenvalues --    2.26954   2.27264   2.28944   2.30631   2.31399
 Alpha virt. eigenvalues --    2.33300   2.34426   2.36279   2.36846   2.38050
 Alpha virt. eigenvalues --    2.39280   2.40209   2.41479   2.43485   2.44664
 Alpha virt. eigenvalues --    2.45872   2.47633   2.50165   2.50519   2.51571
 Alpha virt. eigenvalues --    2.52370   2.53631   2.55008   2.56628   2.58453
 Alpha virt. eigenvalues --    2.58921   2.60244   2.60951   2.61835   2.62672
 Alpha virt. eigenvalues --    2.64404   2.65705   2.66792   2.67332   2.68917
 Alpha virt. eigenvalues --    2.70907   2.71982   2.72646   2.73830   2.74972
 Alpha virt. eigenvalues --    2.76183   2.76379   2.77202   2.77840   2.79505
 Alpha virt. eigenvalues --    2.80824   2.81476   2.83269   2.83509   2.84512
 Alpha virt. eigenvalues --    2.85510   2.86066   2.87796   2.90211   2.91883
 Alpha virt. eigenvalues --    2.97603   3.00161   3.00722   3.04150   3.10261
 Alpha virt. eigenvalues --    3.12018   3.15942   3.16473   3.16937   3.20523
 Alpha virt. eigenvalues --    3.21128   3.22258   3.24706   3.26193   3.27067
 Alpha virt. eigenvalues --    3.27877   3.29747   3.33423   3.34858   3.36429
 Alpha virt. eigenvalues --    3.37044   3.38527   3.39985   3.40299   3.41636
 Alpha virt. eigenvalues --    3.42474   3.44625   3.45344   3.46747   3.48050
 Alpha virt. eigenvalues --    3.48927   3.49196   3.55004   3.58169   3.59570
 Alpha virt. eigenvalues --    3.60602   3.89921   3.99461   4.34075   4.36674
 Alpha virt. eigenvalues --   21.63881  21.79511  22.08306  22.10770  22.11873
 Alpha virt. eigenvalues --   22.14738  22.15139  22.18397  22.20680  22.24606
 Alpha virt. eigenvalues --   22.30031  31.92702  43.62967  43.65848
          Condensed to atoms (all electrons):
               1          2          3          4          5          6
     1  O    7.933474   0.000000  -0.000232   0.000019   0.016418   0.016394
     2  O    0.000000   7.949098   0.000553   0.000036  -0.192819   0.000890
     3  N   -0.000232   0.000553   6.412512   0.374612  -0.119358   0.326552
     4  H    0.000019   0.000036   0.374612   0.412586   0.016548  -0.048339
     5  C    0.016418  -0.192819  -0.119358   0.016548   6.972323  -0.062011
     6  C    0.016394   0.000890   0.326552  -0.048339  -0.062011   5.650845
     7  C   -0.000419  -0.035836   0.372762  -0.040209   0.377979  -0.095450
     8  C   -0.000226   0.705890   0.005062  -0.000623  -0.207970   0.024818
     9  C   -0.024442   0.019302   0.015117  -0.000152  -0.516409  -0.117002
    10  H    0.015077  -0.000040  -0.001276   0.000020  -0.111696   0.025889
    11  H    0.003921   0.000097   0.003795   0.000010  -0.029337  -0.016148
    12  C   -0.219765  -0.002312  -0.093781   0.014764   0.151509  -0.185667
    13  C    0.712155  -0.000022   0.000564   0.000417   0.076667   0.179185
    14  C   -0.000006  -0.002719  -0.035545  -0.008667  -0.077443   0.010656
    15  H   -0.000000   0.004317   0.002807   0.001449   0.019428   0.006677
    16  H   -0.000000   0.000961   0.001418   0.000768  -0.011094  -0.000855
    17  H   -0.000000   0.001072  -0.002744   0.000928  -0.005339  -0.001994
    18  C   -0.000039  -0.105018  -0.000545   0.000021  -0.271459   0.000396
    19  H   -0.000003   0.008807   0.000001  -0.000001   0.021358   0.000034
    20  H    0.000084   0.003497   0.000119   0.000001   0.041649  -0.001099
    21  H    0.000015   0.001084   0.000011  -0.000001   0.005212   0.000254
    22  C   -0.106524   0.000000  -0.000100   0.000120   0.004195  -0.008849
    23  H    0.001216  -0.000000  -0.000034  -0.000016  -0.000073   0.011071
    24  H    0.004743  -0.000000  -0.000038  -0.000052  -0.000584  -0.034223
    25  H    0.007561   0.000000   0.000031  -0.000002  -0.000144  -0.001241
    26  C    0.000912   0.000004  -0.030376  -0.005685   0.000216   0.172562
    27  H   -0.000046  -0.000000  -0.002519   0.000424   0.000428  -0.035384
    28  H   -0.000255  -0.000000   0.003021   0.000881  -0.000009  -0.044328
    29  H    0.000026  -0.000000   0.000177   0.001046  -0.000540  -0.050567
               7          8          9         10         11         12
     1  O   -0.000419  -0.000226  -0.024442   0.015077   0.003921  -0.219765
     2  O   -0.035836   0.705890   0.019302  -0.000040   0.000097  -0.002312
     3  N    0.372762   0.005062   0.015117  -0.001276   0.003795  -0.093781
     4  H   -0.040209  -0.000623  -0.000152   0.000020   0.000010   0.014764
     5  C    0.377979  -0.207970  -0.516409  -0.111696  -0.029337   0.151509
     6  C   -0.095450   0.024818  -0.117002   0.025889  -0.016148  -0.185667
     7  C    5.444090  -0.176320  -0.180298   0.018304  -0.004394   0.003873
     8  C   -0.176320   5.297455   0.100936  -0.008829  -0.004645  -0.033232
     9  C   -0.180298   0.100936   6.303069   0.532160   0.391102  -0.005334
    10  H    0.018304  -0.008829   0.532160   0.502766  -0.035079  -0.106059
    11  H   -0.004394  -0.004645   0.391102  -0.035079   0.558433  -0.021127
    12  C    0.003873  -0.033232  -0.005334  -0.106059  -0.021127   7.308982
    13  C    0.010872  -0.005380  -0.260877  -0.001951  -0.000219  -0.396310
    14  C    0.257745  -0.029161   0.011900   0.000519  -0.001298  -0.005181
    15  H   -0.079773   0.005453   0.000041  -0.000004   0.000066  -0.001270
    16  H   -0.024787  -0.007225  -0.000720  -0.000050   0.000190  -0.000022
    17  H   -0.021106  -0.002831   0.000716   0.000052  -0.000067   0.000870
    18  C    0.002973   0.306522   0.003195   0.007023  -0.008852  -0.004240
    19  H    0.000148  -0.048852  -0.000299   0.000526  -0.000022  -0.000193
    20  H    0.000868  -0.063566  -0.009260  -0.004949   0.001905   0.007322
    21  H    0.000920  -0.026176  -0.009556  -0.002122   0.000994  -0.003763
    22  C   -0.000014  -0.000051   0.003542   0.001001   0.001640  -0.259161
    23  H    0.000028   0.000003  -0.002051  -0.000116   0.000152  -0.011462
    24  H    0.000003  -0.000008   0.003427  -0.000057  -0.000131   0.067370
    25  H    0.000007   0.000003   0.000217  -0.000132  -0.000040   0.022321
    26  C    0.001901   0.000472   0.020173   0.000019  -0.000702  -0.075869
    27  H   -0.000781  -0.000008  -0.000191   0.000040  -0.000020  -0.019963
    28  H   -0.000762   0.000002  -0.000733   0.000006  -0.000114  -0.008528
    29  H    0.003676  -0.000007  -0.000539  -0.000011   0.000110   0.024376
              13         14         15         16         17         18
     1  O    0.712155  -0.000006  -0.000000  -0.000000  -0.000000  -0.000039
     2  O   -0.000022  -0.002719   0.004317   0.000961   0.001072  -0.105018
     3  N    0.000564  -0.035545   0.002807   0.001418  -0.002744  -0.000545
     4  H    0.000417  -0.008667   0.001449   0.000768   0.000928   0.000021
     5  C    0.076667  -0.077443   0.019428  -0.011094  -0.005339  -0.271459
     6  C    0.179185   0.010656   0.006677  -0.000855  -0.001994   0.000396
     7  C    0.010872   0.257745  -0.079773  -0.024787  -0.021106   0.002973
     8  C   -0.005380  -0.029161   0.005453  -0.007225  -0.002831   0.306522
     9  C   -0.260877   0.011900   0.000041  -0.000720   0.000716   0.003195
    10  H   -0.001951   0.000519  -0.000004  -0.000050   0.000052   0.007023
    11  H   -0.000219  -0.001298   0.000066   0.000190  -0.000067  -0.008852
    12  C   -0.396310  -0.005181  -0.001270  -0.000022   0.000870  -0.004240
    13  C    5.445865  -0.000069  -0.000020  -0.000001  -0.000018   0.000695
    14  C   -0.000069   5.046383   0.387446   0.424076   0.408663   0.002217
    15  H   -0.000020   0.387446   0.587831  -0.029091  -0.027688   0.000300
    16  H   -0.000001   0.424076  -0.029091   0.502366  -0.023953  -0.000308
    17  H   -0.000018   0.408663  -0.027688  -0.023953   0.506645  -0.000128
    18  C    0.000695   0.002217   0.000300  -0.000308  -0.000128   5.356082
    19  H   -0.000016   0.000006  -0.000005   0.000034  -0.000018   0.393550
    20  H    0.000495   0.000021  -0.000017  -0.000035   0.000007   0.380176
    21  H   -0.000071  -0.000289  -0.000006   0.000026  -0.000006   0.396662
    22  C    0.282555  -0.000022   0.000002  -0.000000   0.000000   0.000031
    23  H   -0.021896  -0.000001   0.000000  -0.000000   0.000000  -0.000002
    24  H   -0.093144  -0.000001   0.000000   0.000000   0.000000   0.000003
    25  H   -0.039841   0.000000   0.000000   0.000000  -0.000000  -0.000001
    26  C   -0.053042   0.001384   0.000085   0.000055  -0.000171   0.000024
    27  H    0.006355  -0.000114   0.000001   0.000004  -0.000011  -0.000001
    28  H   -0.004629   0.000093  -0.000012  -0.000001   0.000001  -0.000000
    29  H   -0.000736  -0.000272   0.000121  -0.000005   0.000003   0.000000
              19         20         21         22         23         24
     1  O   -0.000003   0.000084   0.000015  -0.106524   0.001216   0.004743
     2  O    0.008807   0.003497   0.001084   0.000000  -0.000000  -0.000000
     3  N    0.000001   0.000119   0.000011  -0.000100  -0.000034  -0.000038
     4  H   -0.000001   0.000001  -0.000001   0.000120  -0.000016  -0.000052
     5  C    0.021358   0.041649   0.005212   0.004195  -0.000073  -0.000584
     6  C    0.000034  -0.001099   0.000254  -0.008849   0.011071  -0.034223
     7  C    0.000148   0.000868   0.000920  -0.000014   0.000028   0.000003
     8  C   -0.048852  -0.063566  -0.026176  -0.000051   0.000003  -0.000008
     9  C   -0.000299  -0.009260  -0.009556   0.003542  -0.002051   0.003427
    10  H    0.000526  -0.004949  -0.002122   0.001001  -0.000116  -0.000057
    11  H   -0.000022   0.001905   0.000994   0.001640   0.000152  -0.000131
    12  C   -0.000193   0.007322  -0.003763  -0.259161  -0.011462   0.067370
    13  C   -0.000016   0.000495  -0.000071   0.282555  -0.021896  -0.093144
    14  C    0.000006   0.000021  -0.000289  -0.000022  -0.000001  -0.000001
    15  H   -0.000005  -0.000017  -0.000006   0.000002   0.000000   0.000000
    16  H    0.000034  -0.000035   0.000026  -0.000000  -0.000000   0.000000
    17  H   -0.000018   0.000007  -0.000006   0.000000   0.000000   0.000000
    18  C    0.393550   0.380176   0.396662   0.000031  -0.000002   0.000003
    19  H    0.494620  -0.022061  -0.008842  -0.000000   0.000000   0.000000
    20  H   -0.022061   0.542589  -0.027155   0.000016  -0.000000  -0.000000
    21  H   -0.008842  -0.027155   0.504725  -0.000014   0.000000  -0.000000
    22  C   -0.000000   0.000016  -0.000014   5.424239   0.400297   0.398579
    23  H    0.000000  -0.000000   0.000000   0.400297   0.495035  -0.027514
    24  H    0.000000  -0.000000  -0.000000   0.398579  -0.027514   0.542762
    25  H   -0.000000  -0.000000   0.000000   0.385200  -0.007521  -0.021920
    26  C    0.000000  -0.000015   0.000006  -0.028333  -0.014732   0.016124
    27  H    0.000000  -0.000000  -0.000000  -0.010784   0.001103  -0.001465
    28  H   -0.000000  -0.000000   0.000000   0.007877  -0.000385  -0.010083
    29  H    0.000000   0.000000  -0.000000   0.002005   0.000227   0.000719
              25         26         27         28         29
     1  O    0.007561   0.000912  -0.000046  -0.000255   0.000026
     2  O    0.000000   0.000004  -0.000000  -0.000000  -0.000000
     3  N    0.000031  -0.030376  -0.002519   0.003021   0.000177
     4  H   -0.000002  -0.005685   0.000424   0.000881   0.001046
     5  C   -0.000144   0.000216   0.000428  -0.000009  -0.000540
     6  C   -0.001241   0.172562  -0.035384  -0.044328  -0.050567
     7  C    0.000007   0.001901  -0.000781  -0.000762   0.003676
     8  C    0.000003   0.000472  -0.000008   0.000002  -0.000007
     9  C    0.000217   0.020173  -0.000191  -0.000733  -0.000539
    10  H   -0.000132   0.000019   0.000040   0.000006  -0.000011
    11  H   -0.000040  -0.000702  -0.000020  -0.000114   0.000110
    12  C    0.022321  -0.075869  -0.019963  -0.008528   0.024376
    13  C   -0.039841  -0.053042   0.006355  -0.004629  -0.000736
    14  C    0.000000   0.001384  -0.000114   0.000093  -0.000272
    15  H    0.000000   0.000085   0.000001  -0.000012   0.000121
    16  H    0.000000   0.000055   0.000004  -0.000001  -0.000005
    17  H   -0.000000  -0.000171  -0.000011   0.000001   0.000003
    18  C   -0.000001   0.000024  -0.000001  -0.000000   0.000000
    19  H   -0.000000   0.000000   0.000000  -0.000000   0.000000
    20  H   -0.000000  -0.000015  -0.000000  -0.000000   0.000000
    21  H    0.000000   0.000006  -0.000000   0.000000  -0.000000
    22  C    0.385200  -0.028333  -0.010784   0.007877   0.002005
    23  H   -0.007521  -0.014732   0.001103  -0.000385   0.000227
    24  H   -0.021920   0.016124  -0.001465  -0.010083   0.000719
    25  H    0.490666   0.001795   0.000101   0.000844  -0.000042
    26  C    0.001795   5.257900   0.429793   0.427401   0.390384
    27  H    0.000101   0.429793   0.480702  -0.024923  -0.019139
    28  H    0.000844   0.427401  -0.024923   0.509747  -0.026945
    29  H   -0.000042   0.390384  -0.019139  -0.026945   0.522475
 Mulliken charges:
               1
     1  O   -0.360056
     2  O   -0.356844
     3  N   -0.232567
     4  H    0.279096
     5  C   -0.097644
     6  C    0.276932
     7  C    0.163998
     8  C    0.168491
     9  C   -0.277034
    10  H    0.168970
    11  H    0.159783
    12  C   -0.148147
    13  C    0.162414
    14  C   -0.390323
    15  H    0.121860
    16  H    0.168249
    17  H    0.167116
    18  C   -0.459275
    19  H    0.161229
    20  H    0.149408
    21  H    0.168093
    22  C   -0.497449
    23  H    0.176670
    24  H    0.155489
    25  H    0.162137
    26  C   -0.512283
    27  H    0.196396
    28  H    0.171834
    29  H    0.153457
 Sum of Mulliken charges =  -0.00000
 Mulliken charges with hydrogens summed into heavy atoms:
               1
     1  O   -0.360056
     2  O   -0.356844
     3  N    0.046528
     5  C   -0.097644
     6  C    0.276932
     7  C    0.163998
     8  C    0.168491
     9  C    0.051718
    12  C   -0.148147
    13  C    0.162414
    14  C    0.066902
    18  C    0.019456
    22  C   -0.003152
    26  C    0.009404
 Electronic spatial extent (au):  <R**2>=           3184.9579
 Charge=             -0.0000 electrons
 Dipole moment (field-independent basis, Debye):
    X=              3.4802    Y=              6.9015    Z=             -0.1668  Tot=              7.7311
 Quadrupole moment (field-independent basis, Debye-Ang):
   XX=            -96.0006   YY=            -78.7964   ZZ=            -85.0109
   XY=             12.4102   XZ=              5.1087   YZ=             -1.6048
 Traceless Quadrupole moment (field-independent basis, Debye-Ang):
   XX=             -9.3980   YY=              7.8062   ZZ=              1.5917
   XY=             12.4102   XZ=              5.1087   YZ=             -1.6048
 Octapole moment (field-independent basis, Debye-Ang**2):
  XXX=             98.7807  YYY=             60.2343  ZZZ=              2.0844  XYY=            -34.5013
  XXY=             28.0757  XXZ=             -8.6370  XZZ=              1.7085  YZZ=             -1.5861
  YYZ=              3.6133  XYZ=             -5.1355
 Hexadecapole moment (field-independent basis, Debye-Ang**3):
 XXXX=          -2993.1415 YYYY=          -1279.7195 ZZZZ=           -156.0886 XXXY=             37.8281
 XXXZ=             58.1265 YYYX=             86.6318 YYYZ=            -21.0817 ZZZX=             -3.1954
 ZZZY=              5.3115 XXYY=           -686.3860 XXZZ=           -483.9165 YYZZ=           -243.3923
 XXYZ=             -7.4709 YYXZ=              6.7575 ZZXY=             -1.3598
 N-N= 9.007858866911D+02 E-N=-3.277734345260D+03  KE= 6.307372479460D+02
 No NMR shielding tensors so no spin-rotation constants.
 Leave Link  601 at Fri Jan 23 22:52:54 2026, MaxMem=  2147483648 cpu:               1.8 elap:               0.1
 (Enter /data/home/wyx/g16/l9999.exe)
 1\1\GINC-CN012\SP\RCAM-B3LYP\TZVP\C11H15N1O2\WYX\23-Jan-2026\0\\#p CAM
 -B3LYP TZVP em=gd3bj scrf=(Solvent=TetraHydroFuran,NonEquilibrium=Read
 ) Geom=Check Guess=Read\\Title Card Required\\0,1\O,0,2.835855,-1.5655
 59,0.140749\O,0,-3.420622,-1.623623,0.055146\N,0,-0.637726,1.511206,-0
 .348608\H,0,-0.946975,2.468788,-0.402347\C,0,-1.238627,-0.757933,-0.22
 1327\C,0,0.699087,1.302599,-0.098194\C,0,-1.613688,0.549488,-0.287498\
 C,0,-2.222736,-1.829948,-0.107701\C,0,0.217406,-1.109002,-0.338689\H,0
 ,0.462263,-1.950341,0.308273\H,0,0.44144,-1.476815,-1.350144\C,0,1.151
 045,0.022948,-0.008595\C,0,2.513242,-0.394503,0.3205\C,0,-3.003807,1.0
 89688,-0.302554\H,0,-3.006462,2.146982,-0.563436\H,0,-3.628662,0.54940
 4,-1.005601\H,0,-3.472467,0.975425,0.672511\C,0,-1.728746,-3.250141,-0
 .190002\H,0,-2.575128,-3.921532,-0.289464\H,0,-1.047331,-3.400214,-1.0
 24576\H,0,-1.183133,-3.515677,0.715296\C,0,3.535099,0.542021,0.918365\
 H,0,4.049104,1.096088,0.130895\H,0,3.103883,1.258365,1.612781\H,0,4.27
 5366,-0.064516,1.434805\C,0,1.467934,2.579096,0.032955\H,0,1.538383,2.
 893104,1.074588\H,0,2.471446,2.498754,-0.365185\H,0,0.964558,3.375848,
 -0.512946\\Version=ES64L-G16RevA.03\State=1-A\HF=-633.3272098\RMSD=5.3
 19e-09\Dipole=0.3863018,3.0156573,-0.0905288\Quadrupole=-12.1107127,10
 .2097261,1.9009866,3.1425558,2.3872658,0.3124803\PG=C01 [X(C11H15N1O2)
 ]\\@


 Boundary, n.  In political geography, an imaginary
 line between two nations, separating the imaginary
 rights of one from the imaginary rights of another.
                               -- Ambrose Bierce
 Job cpu time:       0 days  0 hours 13 minutes 13.8 seconds.
 Elapsed time:       0 days  0 hours  0 minutes 50.6 seconds.
 File lengths (MBytes):  RWF=    338 Int=      0 D2E=      0 Chk=     67 Scr=      1
 Normal termination of Gaussian 16 at Fri Jan 23 22:52:54 2026.
