 Entering Gaussian System, Link 0=g16
 Input=DDL-S2-cLR-gs-16.gjf
 Output=DDL-S2-cLR-gs-16.log
 Initial command:
 /data/home/wyx/g16/l1.exe "/scr/tmp/wyx/13106/Gau-1989291.inp" -scrdir="/scr/tmp/wyx/13106/"
 Entering Link 1 = /data/home/wyx/g16/l1.exe PID=   1989292.
  
 Copyright (c) 1988,1990,1992,1993,1995,1998,2003,2009,2016,
            Gaussian, Inc.  All Rights Reserved.
  
 This is part of the Gaussian(R) 16 program.  It is based on
 the Gaussian(R) 09 system (copyright 2009, Gaussian, Inc.),
 the Gaussian(R) 03 system (copyright 2003, Gaussian, Inc.),
 the Gaussian(R) 98 system (copyright 1998, Gaussian, Inc.),
 the Gaussian(R) 94 system (copyright 1995, Gaussian, Inc.),
 the Gaussian 92(TM) system (copyright 1992, Gaussian, Inc.),
 the Gaussian 90(TM) system (copyright 1990, Gaussian, Inc.),
 the Gaussian 88(TM) system (copyright 1988, Gaussian, Inc.),
 the Gaussian 86(TM) system (copyright 1986, Carnegie Mellon
 University), and the Gaussian 82(TM) system (copyright 1983,
 Carnegie Mellon University). Gaussian is a federally registered
 trademark of Gaussian, Inc.
  
 This software contains proprietary and confidential information,
 including trade secrets, belonging to Gaussian, Inc.
  
 This software is provided under written license and may be
 used, copied, transmitted, or stored only in accord with that
 written license.
  
 The following legend is applicable only to US Government
 contracts under FAR:
  
                    RESTRICTED RIGHTS LEGEND
  
 Use, reproduction and disclosure by the US Government is
 subject to restrictions as set forth in subparagraphs (a)
 and (c) of the Commercial Computer Software - Restricted
 Rights clause in FAR 52.227-19.
  
 Gaussian, Inc.
 340 Quinnipiac St., Bldg. 40, Wallingford CT 06492
  
  
 ---------------------------------------------------------------
 Warning -- This program may not be used in any manner that
 competes with the business of Gaussian, Inc. or will provide
 assistance to any competitor of Gaussian, Inc.  The licensee
 of this program is prohibited from giving any competitor of
 Gaussian, Inc. access to this program.  By using this program,
 the user acknowledges that Gaussian, Inc. is engaged in the
 business of creating and licensing software in the field of
 computational chemistry and represents and warrants to the
 licensee that it is not a competitor of Gaussian, Inc. and that
 it will not use this program in any manner prohibited above.
 ---------------------------------------------------------------
  

 Cite this work as:
 Gaussian 16, Revision A.03,
 M. J. Frisch, G. W. Trucks, H. B. Schlegel, G. E. Scuseria, 
 M. A. Robb, J. R. Cheeseman, G. Scalmani, V. Barone, 
 G. A. Petersson, H. Nakatsuji, X. Li, M. Caricato, A. V. Marenich, 
 J. Bloino, B. G. Janesko, R. Gomperts, B. Mennucci, H. P. Hratchian, 
 J. V. Ortiz, A. F. Izmaylov, J. L. Sonnenberg, D. Williams-Young, 
 F. Ding, F. Lipparini, F. Egidi, J. Goings, B. Peng, A. Petrone, 
 T. Henderson, D. Ranasinghe, V. G. Zakrzewski, J. Gao, N. Rega, 
 G. Zheng, W. Liang, M. Hada, M. Ehara, K. Toyota, R. Fukuda, 
 J. Hasegawa, M. Ishida, T. Nakajima, Y. Honda, O. Kitao, H. Nakai, 
 T. Vreven, K. Throssell, J. A. Montgomery, Jr., J. E. Peralta, 
 F. Ogliaro, M. J. Bearpark, J. J. Heyd, E. N. Brothers, K. N. Kudin, 
 V. N. Staroverov, T. A. Keith, R. Kobayashi, J. Normand, 
 K. Raghavachari, A. P. Rendell, J. C. Burant, S. S. Iyengar, 
 J. Tomasi, M. Cossi, J. M. Millam, M. Klene, C. Adamo, R. Cammi, 
 J. W. Ochterski, R. L. Martin, K. Morokuma, O. Farkas, 
 J. B. Foresman, and D. J. Fox, Gaussian, Inc., Wallingford CT, 2016.
 
 ******************************************
 Gaussian 16:  ES64L-G16RevA.03 25-Dec-2016
                23-Jan-2026 
 ******************************************
 %nprocshared=16
 Will use up to   16 processors via shared memory.
 %mem=16GB
 %oldchk=DDL-S2-cLR-16.chk
 %chk=DDL-S2-cLR-gs-16.chk
 Copying data from "DDL-S2-cLR-16.chk" to current chk file "DDL-S2-cLR-gs-16.chk"
 IOpt=  2 FromEx=T IUOpen= 4 IOptOp= 5 NList=   0 IFRang= 0 IUIn= 4 IUOut= 2.
 ----------------------------------------------------------------------
 #p CAM-B3LYP TZVP em=gd3bj scrf=(Solvent=TetraHydroFuran,NonEquilibriu
 m=Read) Geom=Check Guess=Read
 ----------------------------------------------------------------------
 1/29=2,38=1,172=1/1;
 2/12=2,40=1/2;
 3/5=19,7=101,11=2,14=-4,25=1,30=1,70=6002201,72=20,74=-40,116=-2,124=41/1,2,3;
 4/5=1/1;
 5/5=2,38=6,53=20/2;
 6/7=2,8=2,9=2,10=2,28=1/1;
 99/5=1,9=1/99;
 Leave Link    1 at Fri Jan 23 22:57:31 2026, MaxMem=  2147483648 cpu:               0.8 elap:               0.1
 (Enter /data/home/wyx/g16/l101.exe)
 -------------------
 Title Card Required
 -------------------
 Structure from the checkpoint file:  "DDL-S2-cLR-gs-16.chk"
 Charge =  0 Multiplicity = 1
 Z-Matrix found in chk file.
 O,0,2.834186,-1.563035,0.17172
 O,0,-3.416699,-1.616145,0.114221
 N,0,-0.629619,1.508785,-0.397542
 H,0,-0.937968,2.465585,-0.452661
 C,0,-1.235438,-0.756829,-0.22748
 C,0,0.705234,1.293201,-0.120626
 C,0,-1.606629,0.540993,-0.302298
 C,0,-2.225859,-1.825376,-0.08503
 C,0,0.22442,-1.117347,-0.384186
 H,0,0.478874,-1.968317,0.243302
 H,0,0.431192,-1.450627,-1.409812
 C,0,1.152149,0.021771,-0.02374
 C,0,2.511446,-0.392312,0.335612
 C,0,-2.999209,1.08482,-0.288085
 H,0,-3.001636,2.130796,-0.595318
 H,0,-3.651328,0.514082,-0.942405
 H,0,-3.42642,1.014968,0.712035
 C,0,-1.732591,-3.247712,-0.191248
 H,0,-2.587914,-3.91708,-0.229149
 H,0,-1.108105,-3.392168,-1.073454
 H,0,-1.122147,-3.500918,0.678086
 C,0,3.525521,0.546356,0.944339
 H,0,4.041963,1.104865,0.161825
 H,0,3.085731,1.258676,1.637572
 H,0,4.264812,-0.058829,1.463584
 C,0,1.468584,2.573653,0.035965
 H,0,1.484843,2.891396,1.079762
 H,0,2.489817,2.495514,-0.315468
 H,0,0.982789,3.361234,-0.539521
 Recover connectivity data from disk.
 ITRead=  0  0  0  0  0  0  0  0  0  0  0  0  0  0  0  0  0  0  0  0
 ITRead=  0  0  0  0  0  0  0  0  0
 MicOpt= -1 -1 -1 -1 -1 -1 -1 -1 -1 -1 -1 -1 -1 -1 -1 -1 -1 -1 -1 -1
 MicOpt= -1 -1 -1 -1 -1 -1 -1 -1 -1
 NAtoms=     29 NQM=       29 NQMF=       0 NMMI=      0 NMMIF=      0
                NMic=       0 NMicF=      0.
                    Isotopes and Nuclear Properties:
 (Nuclear quadrupole moments (NQMom) in fm**2, nuclear magnetic moments (NMagM)
  in nuclear magnetons)

  Atom         1           2           3           4           5           6           7           8           9          10
 IAtWgt=          16          16          14           1          12          12          12          12          12           1
 AtmWgt=  15.9949146  15.9949146  14.0030740   1.0078250  12.0000000  12.0000000  12.0000000  12.0000000  12.0000000   1.0078250
 NucSpn=           0           0           2           1           0           0           0           0           0           1
 AtZEff=   5.6000000   5.6000000   4.5500000   1.0000000   3.6000000   3.6000000   3.6000000   3.6000000   3.6000000   1.0000000
 NQMom=    0.0000000   0.0000000   2.0440000   0.0000000   0.0000000   0.0000000   0.0000000   0.0000000   0.0000000   0.0000000
 NMagM=    0.0000000   0.0000000   0.4037610   2.7928460   0.0000000   0.0000000   0.0000000   0.0000000   0.0000000   2.7928460
 AtZNuc=   8.0000000   8.0000000   7.0000000   1.0000000   6.0000000   6.0000000   6.0000000   6.0000000   6.0000000   1.0000000

  Atom        11          12          13          14          15          16          17          18          19          20
 IAtWgt=           1          12          12          12           1           1           1          12           1           1
 AtmWgt=   1.0078250  12.0000000  12.0000000  12.0000000   1.0078250   1.0078250   1.0078250  12.0000000   1.0078250   1.0078250
 NucSpn=           1           0           0           0           1           1           1           0           1           1
 AtZEff=   1.0000000   3.6000000   3.6000000   3.6000000   1.0000000   1.0000000   1.0000000   3.6000000   1.0000000   1.0000000
 NQMom=    0.0000000   0.0000000   0.0000000   0.0000000   0.0000000   0.0000000   0.0000000   0.0000000   0.0000000   0.0000000
 NMagM=    2.7928460   0.0000000   0.0000000   0.0000000   2.7928460   2.7928460   2.7928460   0.0000000   2.7928460   2.7928460
 AtZNuc=   1.0000000   6.0000000   6.0000000   6.0000000   1.0000000   1.0000000   1.0000000   6.0000000   1.0000000   1.0000000

  Atom        21          22          23          24          25          26          27          28          29
 IAtWgt=           1          12           1           1           1          12           1           1           1
 AtmWgt=   1.0078250  12.0000000   1.0078250   1.0078250   1.0078250  12.0000000   1.0078250   1.0078250   1.0078250
 NucSpn=           1           0           1           1           1           0           1           1           1
 AtZEff=   1.0000000   3.6000000   1.0000000   1.0000000   1.0000000   3.6000000   1.0000000   1.0000000   1.0000000
 NQMom=    0.0000000   0.0000000   0.0000000   0.0000000   0.0000000   0.0000000   0.0000000   0.0000000   0.0000000
 NMagM=    2.7928460   0.0000000   2.7928460   2.7928460   2.7928460   0.0000000   2.7928460   2.7928460   2.7928460
 AtZNuc=   1.0000000   6.0000000   1.0000000   1.0000000   1.0000000   6.0000000   1.0000000   1.0000000   1.0000000
 Leave Link  101 at Fri Jan 23 22:57:34 2026, MaxMem=  2147483648 cpu:               0.9 elap:               0.1
 (Enter /data/home/wyx/g16/l202.exe)
                          Input orientation:                          
 ---------------------------------------------------------------------
 Center     Atomic      Atomic             Coordinates (Angstroms)
 Number     Number       Type             X           Y           Z
 ---------------------------------------------------------------------
      1          8           0        2.834186   -1.563035    0.171720
      2          8           0       -3.416699   -1.616145    0.114221
      3          7           0       -0.629619    1.508785   -0.397542
      4          1           0       -0.937968    2.465585   -0.452661
      5          6           0       -1.235438   -0.756829   -0.227480
      6          6           0        0.705234    1.293201   -0.120626
      7          6           0       -1.606629    0.540993   -0.302298
      8          6           0       -2.225859   -1.825376   -0.085030
      9          6           0        0.224420   -1.117347   -0.384186
     10          1           0        0.478874   -1.968317    0.243302
     11          1           0        0.431192   -1.450627   -1.409812
     12          6           0        1.152149    0.021771   -0.023740
     13          6           0        2.511446   -0.392312    0.335612
     14          6           0       -2.999209    1.084820   -0.288085
     15          1           0       -3.001636    2.130796   -0.595318
     16          1           0       -3.651328    0.514082   -0.942405
     17          1           0       -3.426420    1.014968    0.712035
     18          6           0       -1.732591   -3.247712   -0.191248
     19          1           0       -2.587914   -3.917080   -0.229149
     20          1           0       -1.108105   -3.392168   -1.073454
     21          1           0       -1.122147   -3.500918    0.678086
     22          6           0        3.525521    0.546356    0.944339
     23          1           0        4.041963    1.104865    0.161825
     24          1           0        3.085731    1.258676    1.637572
     25          1           0        4.264812   -0.058829    1.463584
     26          6           0        1.468584    2.573653    0.035965
     27          1           0        1.484843    2.891396    1.079762
     28          1           0        2.489817    2.495514   -0.315468
     29          1           0        0.982789    3.361234   -0.539521
 ---------------------------------------------------------------------
                    Distance matrix (angstroms):
                    1          2          3          4          5
     1  O    0.000000
     2  O    6.251375   0.000000
     3  N    4.664556   4.218401   0.000000
     4  H    5.554167   4.808948   1.006769   0.000000
     5  C    4.167873   2.369195   2.351371   3.243940   0.000000
     6  C    3.574351   5.050721   1.380214   2.045689   2.824933
     7  C    4.936848   2.846592   1.378492   2.042981   1.351933
     8  C    5.073342   1.225389   3.709754   4.495126   1.463905
     9  C    2.705281   3.708768   2.761545   3.767391   1.511858
    10  H    2.390998   3.913589   3.705358   4.706516   2.151326
    11  H    2.878934   4.142021   3.302746   4.257635   2.157990
    12  C    2.319281   4.855530   2.350667   3.244193   2.519583
    13  C    1.225404   6.057201   3.744058   4.548341   3.806453
    14  C    6.422698   2.762492   2.409706   2.486425   2.550732
    15  H    6.949069   3.836051   2.460178   2.095510   3.404870
    16  H    6.900549   2.389430   3.227543   3.377948   2.821853
    17  H    6.792145   2.698190   3.049117   3.106960   2.970245
    18  C    4.881120   2.364644   4.887061   5.774212   2.540270
    19  H    5.924643   2.469633   5.770900   6.596263   3.437496
    20  H    4.520823   3.145542   4.970427   5.893013   2.770721
    21  H    4.434452   3.022463   5.147493   6.075497   2.891869
    22  C    2.350407   7.318465   4.471253   5.055471   5.073281
    23  H    2.928569   7.939635   4.722258   5.198929   5.609672
    24  H    3.189679   7.270955   4.243592   4.692106   5.119881
    25  H    2.445044   7.953089   5.465954   6.092092   5.796521
    26  C    4.358381   6.436344   2.392557   2.458033   4.298052
    27  H    4.742069   6.728693   2.926600   2.898215   4.734803
    28  H    4.102166   7.209529   3.272805   3.430660   4.946009
    29  H    5.308668   6.675116   2.459997   2.121094   4.687893
                    6          7          8          9         10
     6  C    0.000000
     7  C    2.437936   0.000000
     8  C    4.279964   2.455678   0.000000
     9  C    2.472122   2.471748   2.568008   0.000000
    10  H    3.289557   3.308117   2.728336   1.087492   0.000000
    11  H    3.043960   3.057099   2.992558   1.098061   1.732935
    12  C    1.351168   2.821000   3.850538   1.512677   2.117796
    13  C    2.512272   4.270425   4.967159   2.504850   2.573648
    14  C    3.714076   1.495068   3.018036   3.905196   4.658442
    15  H    3.829854   2.135270   4.063683   4.582843   5.442422
    16  H    4.501331   2.142721   2.870560   4.242003   4.962537
    17  H    4.223897   2.136624   3.184998   4.367734   4.936701
    18  C    5.154403   3.792425   1.509184   2.899236   2.591575
    19  H    6.164708   4.565379   2.127694   3.971368   3.664161
    20  H    5.113586   4.038931   2.163607   2.724981   2.505933
    21  H    5.192383   4.187233   2.146618   2.936507   2.258577
    22  C    3.105792   5.281392   6.305798   3.928123   4.012118
    23  H    3.353954   5.695608   6.923355   4.450841   4.706027
    24  H    2.959598   5.128002   6.379006   4.233213   4.376434
    25  H    4.124112   6.160515   6.902732   4.567218   4.412319
    26  C    1.498927   3.701765   5.745869   3.917646   4.653172
    27  H    2.145448   4.122097   6.113427   4.449925   5.032738
    28  H    2.160615   4.538854   6.400062   4.264916   4.927667
    29  H    2.128208   3.836029   6.115792   4.544991   5.410255
                   11         12         13         14         15
    11  H    0.000000
    12  C    2.146842   0.000000
    13  C    2.914445   1.465704   0.000000
    14  C    4.410716   4.293451   5.739184   0.000000
    15  H    5.027355   4.693465   6.134067   1.090167   0.000000
    16  H    4.554725   4.915252   6.358825   1.085880   1.776607
    17  H    5.046044   4.742478   6.113950   1.089784   1.770504
    18  C    3.065350   4.363405   5.142251   4.514923   5.540947
    19  H    4.073372   5.435514   6.224662   5.019127   6.073059
    20  H    2.500431   4.226775   4.907724   4.923058   5.858089
    21  H    3.312986   4.251390   4.794134   5.048350   6.072087
    22  C    4.370908   2.616345   1.509965   6.661900   6.890920
    23  H    4.694491   3.091691   2.148074   7.055560   7.158078
    24  H    4.865537   2.833484   2.179602   6.384738   6.542356
    25  H    4.989003   3.450696   2.111356   7.559251   7.863511
    26  C    4.400146   2.572119   3.158211   4.720467   4.536244
    27  H    5.114814   3.092434   3.520002   5.024086   4.849010
    28  H    4.583400   2.827342   2.960391   5.667470   5.510662
    29  H    4.920942   3.383301   4.146294   4.593647   4.170460
                   16         17         18         19         20
    16  H    0.000000
    17  H    1.743170   0.000000
    18  C    4.289159   4.674978   0.000000
    19  H    4.612459   5.090581   1.086769   0.000000
    20  H    4.663040   5.290123   1.090476   1.782756   0.000000
    21  H    5.014277   5.069916   1.092015   1.773341   1.754969
    22  C    7.420782   6.971588   6.582724   7.659858   6.407336
    23  H    7.794554   7.489163   7.239825   8.326347   6.947836
    24  H    7.252494   6.582106   6.846046   7.903376   6.824095
    25  H    8.293508   7.802110   6.991158   8.044333   6.812925
    26  C    5.604689   5.181470   6.647363   7.658660   6.592508
    27  H    6.010078   5.270361   7.046701   8.040892   7.130420
    28  H    6.483270   6.184629   7.129432   8.179986   6.941497
    29  H    5.453772   5.149027   7.153513   8.112959   7.089807
                   21         22         23         24         25
    21  H    0.000000
    22  C    6.168641   0.000000
    23  H    6.938861   1.091317   0.000000
    24  H    6.424997   1.086916   1.765182   0.000000
    25  H    6.440832   1.087389   1.760233   1.776604   0.000000
    26  C    6.635105   3.027551   2.965714   2.628588   4.097188
    27  H    6.915159   3.111578   3.251640   2.353671   4.071778
    28  H    7.070405   2.541459   2.137959   2.387310   3.583337
    29  H    7.280278   4.073189   3.865441   3.685492   5.145963
                   26         27         28         29
    26  C    0.000000
    27  H    1.091209   0.000000
    28  H    1.082833   1.764472   0.000000
    29  H    1.089709   1.759228   1.752371   0.000000
 Stoichiometry    C11H15NO2
 Framework group  C1[X(C11H15NO2)]
 Deg. of freedom    81
 Full point group                 C1      NOp   1
 RotChk:  IX=0 Diff= 3.37D-16
 Largest Abelian subgroup         C1      NOp   1
 Largest concise Abelian subgroup C1      NOp   1
                         Standard orientation:                         
 ---------------------------------------------------------------------
 Center     Atomic      Atomic             Coordinates (Angstroms)
 Number     Number       Type             X           Y           Z
 ---------------------------------------------------------------------
      1          8           0        2.288218   -2.276543   -0.181993
      2          8           0       -3.587161   -0.244219    0.473193
      3          7           0        0.026432    1.802057   -0.268162
      4          1           0        0.055309    2.808391   -0.261635
      5          6           0       -1.288722   -0.139131   -0.091803
      6          6           0        1.230534    1.137598   -0.151447
      7          6           0       -1.205503    1.210234   -0.088377
      8          6           0       -2.562577   -0.824320    0.133650
      9          6           0       -0.059177   -0.953762   -0.423932
     10          1           0       -0.046476   -1.879248    0.146989
     11          1           0       -0.079003   -1.270431   -1.475153
     12          6           0        1.229284   -0.213528   -0.140885
     13          6           0        2.397378   -1.078165    0.049499
     14          6           0       -2.324210    2.184095    0.099555
     15          1           0       -2.003644    3.188751   -0.176791
     16          1           0       -3.191715    1.905829   -0.491325
     17          1           0       -2.649333    2.196388    1.139638
     18          6           0       -2.591352   -2.319843   -0.066891
     19          1           0       -3.621737   -2.662814   -0.025097
     20          1           0       -2.142288   -2.606933   -1.018236
     21          1           0       -2.019826   -2.816749    0.719836
     22          6           0        3.723436   -0.571149    0.563793
     23          1           0        4.318444   -0.167264   -0.257069
     24          1           0        3.620364    0.200936    1.321848
     25          1           0        4.262333   -1.419665    0.978554
     26          6           0        2.392762    2.078530   -0.048228
     27          1           0        2.617923    2.305253    0.995150
     28          1           0        3.287845    1.687921   -0.515965
     29          1           0        2.147210    3.017972   -0.542818
 ---------------------------------------------------------------------
 Rotational constants (GHZ):           1.0782823           0.4906712           0.3474065
 Leave Link  202 at Fri Jan 23 22:57:34 2026, MaxMem=  2147483648 cpu:               0.0 elap:               0.0
 (Enter /data/home/wyx/g16/l301.exe)
 Standard basis: TZVP (5D, 7F)
 Ernie: Thresh=  0.10000D-02 Tol=  0.10000D-05 Strict=F.
 There are   370 symmetry adapted cartesian basis functions of A   symmetry.
 There are   356 symmetry adapted basis functions of A   symmetry.
   356 basis functions,   610 primitive gaussians,   370 cartesian basis functions
    52 alpha electrons       52 beta electrons
       nuclear repulsion energy       900.7283919506 Hartrees.
 IExCor=20419 DFT=T Ex+Corr=CAM-B3LYP ExCW=0 ScaHFX=  1.000000
 ScaDFX=  1.000000  1.000000  1.000000  0.810000 ScalE2=  1.000000  1.000000
 IRadAn=      5 IRanWt=     -1 IRanGd=            0 ICorTp=0 IEmpDi=141
 HFx  wShort=  0.000000 wLong=  0.330000 cFull=  0.190000 cShort=  0.000000 cLong=  0.460000
 DFx  wShort=  0.000000 wLong=  0.330000 cFull=  0.190000 cShort=  0.000000 cLong=  0.460000
 NAtoms=   29 NActive=   29 NUniq=   29 SFac= 1.00D+00 NAtFMM=   60 NAOKFM=F Big=F
 Integral buffers will be    131072 words long.
 Raffenetti 2 integral format.
 Two-electron integral symmetry is turned on.
 R6Disp:  Grimme-D3(BJ) Dispersion energy=       -0.0262127042 Hartrees.
 Nuclear repulsion after empirical dispersion term =      900.7021792464 Hartrees.
 ------------------------------------------------------------------------------
 Polarizable Continuum Model (PCM)
 =================================
 Model                : PCM.
 Atomic radii         : UFF (Universal Force Field).
 Polarization charges : Total charges.
 Charge compensation  : None.
 Solution method      : On-the-fly selection.
 Cavity type          : Scaled VdW (van der Waals Surface) (Alpha=1.100).
 Cavity algorithm     : GePol (No added spheres)
                        Default sphere list used, NSphG=   29.
                        Lebedev-Laikov grids with approx.  5.0 points / Ang**2.
                        Smoothing algorithm: York/Karplus (Gamma=1.0000).
                        Polarization charges: spherical gaussians, with
                                              point-specific exponents (IZeta= 3).
                        Self-potential: point-specific (ISelfS= 7).
                        Self-field    : sphere-specific E.n sum rule (ISelfD= 2).
 Solvent              : TetraHydroFuran, Eps=   7.425700 Eps(inf)=   1.974025
 ------------------------------------------------------------------------------
 GePol: Number of generator spheres                  =      29
 GePol: Total number of spheres                      =      29
 GePol: Number of exposed spheres                    =      29 (100.00%)
 GePol: Number of points                             =    2087
 GePol: Average weight of points                     =       0.13
 GePol: Minimum weight of points                     =   0.28D-10
 GePol: Maximum weight of points                     =    0.20577
 GePol: Number of points with low weight             =     143
 GePol: Fraction of low-weight points (<1% of avg)   =       6.85%
 GePol: Cavity surface area                          =    268.837 Ang**2
 GePol: Cavity volume                                =    286.879 Ang**3
 Leave Link  301 at Fri Jan 23 22:57:35 2026, MaxMem=  2147483648 cpu:               0.6 elap:               0.0
 (Enter /data/home/wyx/g16/l302.exe)
 NPDir=0 NMtPBC=     1 NCelOv=     1 NCel=       1 NClECP=     1 NCelD=      1
         NCelK=      1 NCelE2=     1 NClLst=     1 CellRange=     0.0.
 One-electron integrals computed using PRISM.
 One-electron integral symmetry used in STVInt
 NBasis=   356 RedAO= T EigKep=  4.74D-05  NBF=   356
 NBsUse=   356 1.00D-06 EigRej= -1.00D+00 NBFU=   356
 Precomputing XC quadrature grid using
 IXCGrd= 4 IRadAn=           5 IRanWt=          -1 IRanGd=           0 AccXCQ= 0.00D+00.
 Generated NRdTot=       0 NPtTot=           0 NUsed=           0 NTot=          32
 NSgBfM=   366   366   366   366   366 MxSgAt=    29 MxSgA2=    29.
 Leave Link  302 at Fri Jan 23 22:57:35 2026, MaxMem=  2147483648 cpu:               3.1 elap:               0.2
 (Enter /data/home/wyx/g16/l303.exe)
 DipDrv:  MaxL=1.
 Leave Link  303 at Fri Jan 23 22:57:35 2026, MaxMem=  2147483648 cpu:               0.6 elap:               0.0
 (Enter /data/home/wyx/g16/l401.exe)
 Initial guess from the checkpoint file:  "DDL-S2-cLR-gs-16.chk"
 B after Tr=    -0.000000    0.000000   -0.000000
         Rot=    1.000000    0.000000   -0.000000   -0.000000 Ang=   0.00 deg.
 Guess basis will be translated and rotated to current coordinates.
 JPrj=2 DoOrth=T DoCkMO=T.
 Leave Link  401 at Fri Jan 23 22:57:36 2026, MaxMem=  2147483648 cpu:               2.2 elap:               0.2
 (Enter /data/home/wyx/g16/l502.exe)
 Integral symmetry usage will be decided dynamically.
 Closed shell SCF:
 Using DIIS extrapolation, IDIIS=  1040.
 NGot=  2147483648 LenX=  2147200095 LenY=  2147062754
 Requested convergence on RMS density matrix=1.00D-08 within 128 cycles.
 Requested convergence on MAX density matrix=1.00D-06.
 Requested convergence on             energy=1.00D-06.
 No special actions if energy rises.
 Fock matrices will be formed incrementally for  20 cycles.

 Cycle   1  Pass 1  IDiag  1:
 FoFJK:  IHMeth= 1 ICntrl=       0 DoSepK=T KAlg= 0 I1Cent=           0 FoldK=F
 IRaf=         1 NMat=       1 IRICut=       1 DoRegI=T DoRafI=F ISym2E= 0 IDoP0=0 IntGTp=1.
 FoFCou: FMM=F IPFlag=           0 FMFlag=      100000 FMFlg1=           0
         NFxFlg=           0 DoJE=T BraDBF=F KetDBF=F FulRan=T
         wScrn=  0.000000 ICntrl=       500 IOpCl=  0 I1Cent=           0 NGrid=           0
         NMat0=    1 NMatS0=      1 NMatT0=    0 NMatD0=    1 NMtDS0=    0 NMtDT0=    0
 Symmetry not used in FoFCou.
 Inv3:  Mode=1 IEnd=    13066707.
 Iteration    1 A*A^-1 deviation from unit magnitude is 3.55D-15 for   1105.
 Iteration    1 A*A^-1 deviation from orthogonality  is 1.48D-15 for   1729    677.
 Iteration    1 A^-1*A deviation from unit magnitude is 3.33D-15 for   1105.
 Iteration    1 A^-1*A deviation from orthogonality  is 1.49D-15 for   1672    751.
 NEqPCM:  Using non-equilibrium solvation (IEInf=1, Eps=   7.4257, EpsInf=   1.9740)
 Inv3:  Mode=1 IEnd=    13066707.
 Iteration    1 A*A^-1 deviation from unit magnitude is 4.44D-15 for    387.
 Iteration    1 A*A^-1 deviation from orthogonality  is 2.22D-15 for   1348     14.
 Iteration    1 A^-1*A deviation from unit magnitude is 3.55D-15 for    387.
 Iteration    1 A^-1*A deviation from orthogonality  is 2.13D-15 for   1326    456.
 E= -633.327690808811    
 DIIS: error= 4.18D-04 at cycle   1 NSaved=   1.
 NSaved= 1 IEnMin= 1 EnMin= -633.327690808811     IErMin= 1 ErrMin= 4.18D-04
 ErrMax= 4.18D-04  0.00D+00 EMaxC= 1.00D-01 BMatC= 4.22D-05 BMatP= 4.22D-05
 IDIUse=3 WtCom= 9.96D-01 WtEn= 4.18D-03
 Coeff-Com:  0.100D+01
 Coeff-En:   0.100D+01
 Coeff:      0.100D+01
 Gap=     0.242 Goal=   None    Shift=    0.000
 RMSDP=2.44D-04 MaxDP=1.07D-02              OVMax= 6.79D-03

 Cycle   2  Pass 1  IDiag  1:
 RMSU=  2.43D-04    CP:  1.00D+00
 E= -633.327767960068     Delta-E=       -0.000077151257 Rises=F Damp=F
 DIIS: error= 3.20D-04 at cycle   2 NSaved=   2.
 NSaved= 2 IEnMin= 2 EnMin= -633.327767960068     IErMin= 2 ErrMin= 3.20D-04
 ErrMax= 3.20D-04  0.00D+00 EMaxC= 1.00D-01 BMatC= 3.93D-05 BMatP= 4.22D-05
 IDIUse=3 WtCom= 9.97D-01 WtEn= 3.20D-03
 Coeff-Com:  0.487D+00 0.513D+00
 Coeff-En:   0.000D+00 0.100D+01
 Coeff:      0.485D+00 0.515D+00
 Gap=     0.241 Goal=   None    Shift=    0.000
 RMSDP=6.37D-05 MaxDP=3.11D-03 DE=-7.72D-05 OVMax= 1.69D-03

 Cycle   3  Pass 1  IDiag  1:
 RMSU=  5.99D-05    CP:  1.00D+00  9.76D-01
 E= -633.327797899969     Delta-E=       -0.000029939901 Rises=F Damp=F
 DIIS: error= 1.25D-04 at cycle   3 NSaved=   3.
 NSaved= 3 IEnMin= 3 EnMin= -633.327797899969     IErMin= 3 ErrMin= 1.25D-04
 ErrMax= 1.25D-04  0.00D+00 EMaxC= 1.00D-01 BMatC= 5.52D-06 BMatP= 3.93D-05
 IDIUse=3 WtCom= 9.99D-01 WtEn= 1.25D-03
 Coeff-Com:  0.604D-01 0.252D+00 0.688D+00
 Coeff-En:   0.000D+00 0.145D-01 0.985D+00
 Coeff:      0.604D-01 0.252D+00 0.688D+00
 Gap=     0.242 Goal=   None    Shift=    0.000
 RMSDP=1.75D-05 MaxDP=8.78D-04 DE=-2.99D-05 OVMax= 9.60D-04

 Cycle   4  Pass 1  IDiag  1:
 RMSU=  1.37D-05    CP:  1.00D+00  9.97D-01  1.16D+00
 E= -633.327802460991     Delta-E=       -0.000004561023 Rises=F Damp=F
 DIIS: error= 3.06D-05 at cycle   4 NSaved=   4.
 NSaved= 4 IEnMin= 4 EnMin= -633.327802460991     IErMin= 4 ErrMin= 3.06D-05
 ErrMax= 3.06D-05  0.00D+00 EMaxC= 1.00D-01 BMatC= 3.78D-07 BMatP= 5.52D-06
 IDIUse=1 WtCom= 1.00D+00 WtEn= 0.00D+00
 Coeff-Com: -0.146D-01 0.242D-01 0.205D+00 0.786D+00
 Coeff:     -0.146D-01 0.242D-01 0.205D+00 0.786D+00
 Gap=     0.242 Goal=   None    Shift=    0.000
 RMSDP=1.12D-05 MaxDP=5.38D-04 DE=-4.56D-06 OVMax= 5.66D-04

 Cycle   5  Pass 1  IDiag  1:
 RMSU=  6.30D-06    CP:  1.00D+00  1.01D+00  1.30D+00  1.08D+00
 E= -633.327802976576     Delta-E=       -0.000000515584 Rises=F Damp=F
 DIIS: error= 1.38D-05 at cycle   5 NSaved=   5.
 NSaved= 5 IEnMin= 5 EnMin= -633.327802976576     IErMin= 5 ErrMin= 1.38D-05
 ErrMax= 1.38D-05  0.00D+00 EMaxC= 1.00D-01 BMatC= 1.04D-07 BMatP= 3.78D-07
 IDIUse=1 WtCom= 1.00D+00 WtEn= 0.00D+00
 Coeff-Com: -0.133D-01-0.262D-01-0.601D-03 0.360D+00 0.681D+00
 Coeff:     -0.133D-01-0.262D-01-0.601D-03 0.360D+00 0.681D+00
 Gap=     0.242 Goal=   None    Shift=    0.000
 RMSDP=4.35D-06 MaxDP=1.78D-04 DE=-5.16D-07 OVMax= 2.02D-04

 Cycle   6  Pass 1  IDiag  1:
 RMSU=  2.04D-06    CP:  1.00D+00  1.01D+00  1.35D+00  1.23D+00  1.07D+00
 E= -633.327803125104     Delta-E=       -0.000000148528 Rises=F Damp=F
 DIIS: error= 7.97D-06 at cycle   6 NSaved=   6.
 NSaved= 6 IEnMin= 6 EnMin= -633.327803125104     IErMin= 6 ErrMin= 7.97D-06
 ErrMax= 7.97D-06  0.00D+00 EMaxC= 1.00D-01 BMatC= 1.06D-08 BMatP= 1.04D-07
 IDIUse=1 WtCom= 1.00D+00 WtEn= 0.00D+00
 Coeff-Com: -0.102D-02-0.142D-01-0.228D-01 0.772D-02 0.193D+00 0.837D+00
 Coeff:     -0.102D-02-0.142D-01-0.228D-01 0.772D-02 0.193D+00 0.837D+00
 Gap=     0.242 Goal=   None    Shift=    0.000
 RMSDP=1.91D-06 MaxDP=7.08D-05 DE=-1.49D-07 OVMax= 1.62D-04

 Cycle   7  Pass 1  IDiag  1:
 RMSU=  9.04D-07    CP:  1.00D+00  1.01D+00  1.37D+00  1.29D+00  1.18D+00
                    CP:  1.19D+00
 E= -633.327803152507     Delta-E=       -0.000000027403 Rises=F Damp=F
 DIIS: error= 3.27D-06 at cycle   7 NSaved=   7.
 NSaved= 7 IEnMin= 7 EnMin= -633.327803152507     IErMin= 7 ErrMin= 3.27D-06
 ErrMax= 3.27D-06  0.00D+00 EMaxC= 1.00D-01 BMatC= 4.85D-09 BMatP= 1.06D-08
 IDIUse=1 WtCom= 1.00D+00 WtEn= 0.00D+00
 Coeff-Com:  0.210D-02-0.342D-02-0.779D-02-0.652D-01-0.724D-01 0.424D+00
 Coeff-Com:  0.723D+00
 Coeff:      0.210D-02-0.342D-02-0.779D-02-0.652D-01-0.724D-01 0.424D+00
 Coeff:      0.723D+00
 Gap=     0.242 Goal=   None    Shift=    0.000
 RMSDP=8.83D-07 MaxDP=3.90D-05 DE=-2.74D-08 OVMax= 8.04D-05

 Cycle   8  Pass 1  IDiag  1:
 RMSU=  3.39D-07    CP:  1.00D+00  1.01D+00  1.38D+00  1.32D+00  1.23D+00
                    CP:  1.38D+00  1.10D+00
 E= -633.327803161076     Delta-E=       -0.000000008569 Rises=F Damp=F
 DIIS: error= 1.15D-06 at cycle   8 NSaved=   8.
 NSaved= 8 IEnMin= 8 EnMin= -633.327803161076     IErMin= 8 ErrMin= 1.15D-06
 ErrMax= 1.15D-06  0.00D+00 EMaxC= 1.00D-01 BMatC= 4.76D-10 BMatP= 4.85D-09
 IDIUse=1 WtCom= 1.00D+00 WtEn= 0.00D+00
 Coeff-Com:  0.914D-03 0.308D-03 0.193D-02-0.220D-01-0.692D-01 0.915D-02
 Coeff-Com:  0.234D+00 0.845D+00
 Coeff:      0.914D-03 0.308D-03 0.193D-02-0.220D-01-0.692D-01 0.915D-02
 Coeff:      0.234D+00 0.845D+00
 Gap=     0.242 Goal=   None    Shift=    0.000
 RMSDP=3.71D-07 MaxDP=1.17D-05 DE=-8.57D-09 OVMax= 3.30D-05

 Cycle   9  Pass 1  IDiag  1:
 RMSU=  1.11D-07    CP:  1.00D+00  1.01D+00  1.38D+00  1.33D+00  1.24D+00
                    CP:  1.49D+00  1.29D+00  1.17D+00
 E= -633.327803162171     Delta-E=       -0.000000001096 Rises=F Damp=F
 DIIS: error= 4.76D-07 at cycle   9 NSaved=   9.
 NSaved= 9 IEnMin= 9 EnMin= -633.327803162171     IErMin= 9 ErrMin= 4.76D-07
 ErrMax= 4.76D-07  0.00D+00 EMaxC= 1.00D-01 BMatC= 5.35D-11 BMatP= 4.76D-10
 IDIUse=1 WtCom= 1.00D+00 WtEn= 0.00D+00
 Coeff-Com:  0.406D-04 0.466D-03 0.181D-02 0.276D-02-0.166D-01-0.573D-01
 Coeff-Com: -0.901D-02 0.315D+00 0.762D+00
 Coeff:      0.406D-04 0.466D-03 0.181D-02 0.276D-02-0.166D-01-0.573D-01
 Coeff:     -0.901D-02 0.315D+00 0.762D+00
 Gap=     0.242 Goal=   None    Shift=    0.000
 RMSDP=1.10D-07 MaxDP=5.28D-06 DE=-1.10D-09 OVMax= 1.07D-05

 Cycle  10  Pass 1  IDiag  1:
 RMSU=  4.72D-08    CP:  1.00D+00  1.01D+00  1.38D+00  1.33D+00  1.24D+00
                    CP:  1.51D+00  1.35D+00  1.27D+00  1.00D+00
 E= -633.327803162284     Delta-E=       -0.000000000112 Rises=F Damp=F
 DIIS: error= 1.13D-07 at cycle  10 NSaved=  10.
 NSaved=10 IEnMin=10 EnMin= -633.327803162284     IErMin=10 ErrMin= 1.13D-07
 ErrMax= 1.13D-07  0.00D+00 EMaxC= 1.00D-01 BMatC= 9.23D-12 BMatP= 5.35D-11
 IDIUse=1 WtCom= 1.00D+00 WtEn= 0.00D+00
 Coeff-Com: -0.663D-04 0.230D-03 0.219D-03 0.316D-02 0.105D-02-0.219D-01
 Coeff-Com: -0.253D-01 0.704D-02 0.279D+00 0.757D+00
 Coeff:     -0.663D-04 0.230D-03 0.219D-03 0.316D-02 0.105D-02-0.219D-01
 Coeff:     -0.253D-01 0.704D-02 0.279D+00 0.757D+00
 Gap=     0.242 Goal=   None    Shift=    0.000
 RMSDP=3.81D-08 MaxDP=1.23D-06 DE=-1.12D-10 OVMax= 2.66D-06

 Cycle  11  Pass 1  IDiag  1:
 RMSU=  1.45D-08    CP:  1.00D+00  1.01D+00  1.38D+00  1.33D+00  1.24D+00
                    CP:  1.52D+00  1.37D+00  1.30D+00  1.14D+00  1.10D+00
 E= -633.327803162291     Delta-E=       -0.000000000007 Rises=F Damp=F
 DIIS: error= 7.86D-08 at cycle  11 NSaved=  11.
 NSaved=11 IEnMin=11 EnMin= -633.327803162291     IErMin=11 ErrMin= 7.86D-08
 ErrMax= 7.86D-08  0.00D+00 EMaxC= 1.00D-01 BMatC= 1.75D-12 BMatP= 9.23D-12
 IDIUse=1 WtCom= 1.00D+00 WtEn= 0.00D+00
 Coeff-Com: -0.413D-04 0.710D-04-0.224D-03 0.120D-02 0.324D-02-0.825D-03
 Coeff-Com: -0.838D-02-0.493D-01 0.172D-01 0.335D+00 0.702D+00
 Coeff:     -0.413D-04 0.710D-04-0.224D-03 0.120D-02 0.324D-02-0.825D-03
 Coeff:     -0.838D-02-0.493D-01 0.172D-01 0.335D+00 0.702D+00
 Gap=     0.242 Goal=   None    Shift=    0.000
 RMSDP=1.75D-08 MaxDP=1.26D-06 DE=-7.16D-12 OVMax= 8.14D-07

 Cycle  12  Pass 1  IDiag  1:
 RMSU=  7.59D-09    CP:  1.00D+00  1.01D+00  1.38D+00  1.33D+00  1.23D+00
                    CP:  1.52D+00  1.37D+00  1.31D+00  1.15D+00  1.25D+00
                    CP:  9.78D-01
 E= -633.327803162295     Delta-E=       -0.000000000004 Rises=F Damp=F
 DIIS: error= 2.66D-08 at cycle  12 NSaved=  12.
 NSaved=12 IEnMin=12 EnMin= -633.327803162295     IErMin=12 ErrMin= 2.66D-08
 ErrMax= 2.66D-08  0.00D+00 EMaxC= 1.00D-01 BMatC= 2.70D-13 BMatP= 1.75D-12
 IDIUse=1 WtCom= 1.00D+00 WtEn= 0.00D+00
 Coeff-Com: -0.974D-05 0.169D-04-0.128D-03 0.954D-04 0.123D-02 0.231D-02
 Coeff-Com:  0.379D-03-0.222D-01-0.255D-01 0.277D-01 0.318D+00 0.698D+00
 Coeff:     -0.974D-05 0.169D-04-0.128D-03 0.954D-04 0.123D-02 0.231D-02
 Coeff:      0.379D-03-0.222D-01-0.255D-01 0.277D-01 0.318D+00 0.698D+00
 Gap=     0.242 Goal=   None    Shift=    0.000
 RMSDP=4.48D-09 MaxDP=2.16D-07 DE=-4.32D-12 OVMax= 3.23D-07

 Error on total polarization charges =  0.00910
 SCF Done:  E(RCAM-B3LYP) =  -633.327803162     A.U. after   12 cycles
            NFock= 12  Conv=0.45D-08     -V/T= 2.0042
 KE= 6.307084351048D+02 PE=-3.277562026253D+03 EE= 1.112823608740D+03
 Leave Link  502 at Fri Jan 23 22:58:24 2026, MaxMem=  2147483648 cpu:             756.0 elap:              47.9
 (Enter /data/home/wyx/g16/l601.exe)
 Copying SCF densities to generalized density rwf, IOpCl= 0 IROHF=0.

 **********************************************************************

            Population analysis using the SCF density.

 **********************************************************************

 Orbital symmetries:
       Occupied  (A) (A) (A) (A) (A) (A) (A) (A) (A) (A) (A) (A)
                 (A) (A) (A) (A) (A) (A) (A) (A) (A) (A) (A) (A)
                 (A) (A) (A) (A) (A) (A) (A) (A) (A) (A) (A) (A)
                 (A) (A) (A) (A) (A) (A) (A) (A) (A) (A) (A) (A)
                 (A) (A) (A) (A)
       Virtual   (A) (A) (A) (A) (A) (A) (A) (A) (A) (A) (A) (A)
                 (A) (A) (A) (A) (A) (A) (A) (A) (A) (A) (A) (A)
                 (A) (A) (A) (A) (A) (A) (A) (A) (A) (A) (A) (A)
                 (A) (A) (A) (A) (A) (A) (A) (A) (A) (A) (A) (A)
                 (A) (A) (A) (A) (A) (A) (A) (A) (A) (A) (A) (A)
                 (A) (A) (A) (A) (A) (A) (A) (A) (A) (A) (A) (A)
                 (A) (A) (A) (A) (A) (A) (A) (A) (A) (A) (A) (A)
                 (A) (A) (A) (A) (A) (A) (A) (A) (A) (A) (A) (A)
                 (A) (A) (A) (A) (A) (A) (A) (A) (A) (A) (A) (A)
                 (A) (A) (A) (A) (A) (A) (A) (A) (A) (A) (A) (A)
                 (A) (A) (A) (A) (A) (A) (A) (A) (A) (A) (A) (A)
                 (A) (A) (A) (A) (A) (A) (A) (A) (A) (A) (A) (A)
                 (A) (A) (A) (A) (A) (A) (A) (A) (A) (A) (A) (A)
                 (A) (A) (A) (A) (A) (A) (A) (A) (A) (A) (A) (A)
                 (A) (A) (A) (A) (A) (A) (A) (A) (A) (A) (A) (A)
                 (A) (A) (A) (A) (A) (A) (A) (A) (A) (A) (A) (A)
                 (A) (A) (A) (A) (A) (A) (A) (A) (A) (A) (A) (A)
                 (A) (A) (A) (A) (A) (A) (A) (A) (A) (A) (A) (A)
                 (A) (A) (A) (A) (A) (A) (A) (A) (A) (A) (A) (A)
                 (A) (A) (A) (A) (A) (A) (A) (A) (A) (A) (A) (A)
                 (A) (A) (A) (A) (A) (A) (A) (A) (A) (A) (A) (A)
                 (A) (A) (A) (A) (A) (A) (A) (A) (A) (A) (A) (A)
                 (A) (A) (A) (A) (A) (A) (A) (A) (A) (A) (A) (A)
                 (A) (A) (A) (A) (A) (A) (A) (A) (A) (A) (A) (A)
                 (A) (A) (A) (A) (A) (A) (A) (A) (A) (A) (A) (A)
                 (A) (A) (A) (A)
 The electronic state is 1-A.
 Alpha  occ. eigenvalues --  -19.18143 -19.17133 -14.44235 -10.33725 -10.32840
 Alpha  occ. eigenvalues --  -10.32201 -10.31411 -10.26244 -10.25290 -10.24993
 Alpha  occ. eigenvalues --  -10.24818 -10.24568 -10.24563 -10.23461  -1.12363
 Alpha  occ. eigenvalues --   -1.11308  -1.07565  -0.91378  -0.90317  -0.83875
 Alpha  occ. eigenvalues --   -0.82556  -0.81725  -0.78489  -0.74178  -0.71154
 Alpha  occ. eigenvalues --   -0.68640  -0.61589  -0.58292  -0.56891  -0.55307
 Alpha  occ. eigenvalues --   -0.54666  -0.53983  -0.52631  -0.51987  -0.50919
 Alpha  occ. eigenvalues --   -0.50121  -0.49487  -0.49169  -0.48672  -0.48229
 Alpha  occ. eigenvalues --   -0.46951  -0.45247  -0.45058  -0.43556  -0.43242
 Alpha  occ. eigenvalues --   -0.42572  -0.42100  -0.41860  -0.32992  -0.32398
 Alpha  occ. eigenvalues --   -0.30971  -0.26413
 Alpha virt. eigenvalues --   -0.02257   0.02410   0.06069   0.07991   0.08364
 Alpha virt. eigenvalues --    0.09890   0.10764   0.11897   0.12526   0.13341
 Alpha virt. eigenvalues --    0.14183   0.14722   0.15537   0.16004   0.16903
 Alpha virt. eigenvalues --    0.17452   0.17673   0.17901   0.18072   0.19188
 Alpha virt. eigenvalues --    0.19805   0.21928   0.22410   0.23288   0.23433
 Alpha virt. eigenvalues --    0.23730   0.24728   0.25358   0.25889   0.26369
 Alpha virt. eigenvalues --    0.26803   0.27098   0.28708   0.28902   0.30080
 Alpha virt. eigenvalues --    0.31392   0.31760   0.32717   0.33443   0.34068
 Alpha virt. eigenvalues --    0.35396   0.35690   0.36737   0.37865   0.38861
 Alpha virt. eigenvalues --    0.40131   0.40719   0.41612   0.42090   0.42581
 Alpha virt. eigenvalues --    0.43825   0.44059   0.45249   0.45750   0.46283
 Alpha virt. eigenvalues --    0.47080   0.47486   0.47866   0.48248   0.48821
 Alpha virt. eigenvalues --    0.49297   0.50230   0.50651   0.51215   0.51629
 Alpha virt. eigenvalues --    0.52905   0.53117   0.53267   0.54124   0.54332
 Alpha virt. eigenvalues --    0.54367   0.55749   0.56046   0.56582   0.57855
 Alpha virt. eigenvalues --    0.58472   0.58890   0.60306   0.61102   0.62053
 Alpha virt. eigenvalues --    0.63162   0.65422   0.65775   0.66585   0.67752
 Alpha virt. eigenvalues --    0.68460   0.69929   0.71134   0.72162   0.72885
 Alpha virt. eigenvalues --    0.73354   0.73674   0.74941   0.75951   0.77320
 Alpha virt. eigenvalues --    0.78032   0.79701   0.81661   0.83420   0.83992
 Alpha virt. eigenvalues --    0.89117   0.93230   0.98555   1.00245   1.24809
 Alpha virt. eigenvalues --    1.25710   1.27041   1.27516   1.29184   1.31506
 Alpha virt. eigenvalues --    1.32266   1.32872   1.33849   1.35182   1.35710
 Alpha virt. eigenvalues --    1.36554   1.37221   1.37829   1.39103   1.39669
 Alpha virt. eigenvalues --    1.39947   1.40009   1.41068   1.41551   1.41753
 Alpha virt. eigenvalues --    1.42984   1.43950   1.44739   1.45146   1.46759
 Alpha virt. eigenvalues --    1.47981   1.48700   1.49445   1.50442   1.50887
 Alpha virt. eigenvalues --    1.52182   1.52380   1.54118   1.54293   1.57400
 Alpha virt. eigenvalues --    1.58267   1.60372   1.60587   1.61033   1.62098
 Alpha virt. eigenvalues --    1.62394   1.63247   1.64130   1.65247   1.65606
 Alpha virt. eigenvalues --    1.66889   1.67277   1.67484   1.68138   1.68460
 Alpha virt. eigenvalues --    1.68775   1.69693   1.70490   1.72031   1.72216
 Alpha virt. eigenvalues --    1.73018   1.74910   1.75913   1.76881   1.78632
 Alpha virt. eigenvalues --    1.79494   1.83048   1.84135   1.85775   1.86439
 Alpha virt. eigenvalues --    1.86984   1.87331   1.88521   1.88797   1.90500
 Alpha virt. eigenvalues --    1.91479   1.94231   1.94987   1.97831   1.99491
 Alpha virt. eigenvalues --    2.00605   2.03486   2.04079   2.05989   2.09138
 Alpha virt. eigenvalues --    2.11151   2.12791   2.14117   2.16271   2.19134
 Alpha virt. eigenvalues --    2.20322   2.20916   2.21576   2.22287   2.25969
 Alpha virt. eigenvalues --    2.26693   2.26863   2.28618   2.30098   2.30847
 Alpha virt. eigenvalues --    2.32703   2.34507   2.35811   2.35903   2.37723
 Alpha virt. eigenvalues --    2.39216   2.40074   2.41317   2.43760   2.44491
 Alpha virt. eigenvalues --    2.45676   2.47452   2.50117   2.50157   2.51446
 Alpha virt. eigenvalues --    2.52802   2.53335   2.54929   2.56533   2.58553
 Alpha virt. eigenvalues --    2.58876   2.59773   2.60395   2.61100   2.62407
 Alpha virt. eigenvalues --    2.64243   2.65427   2.66734   2.67493   2.69008
 Alpha virt. eigenvalues --    2.70142   2.71880   2.72549   2.73600   2.74555
 Alpha virt. eigenvalues --    2.75950   2.76513   2.77152   2.77893   2.79394
 Alpha virt. eigenvalues --    2.80789   2.81132   2.82735   2.83529   2.84502
 Alpha virt. eigenvalues --    2.85423   2.85760   2.87384   2.90408   2.91726
 Alpha virt. eigenvalues --    2.97602   3.00069   3.01099   3.03288   3.09781
 Alpha virt. eigenvalues --    3.11680   3.15081   3.16000   3.16799   3.20010
 Alpha virt. eigenvalues --    3.20539   3.21983   3.25020   3.26418   3.26960
 Alpha virt. eigenvalues --    3.27877   3.29396   3.33290   3.34901   3.36324
 Alpha virt. eigenvalues --    3.36753   3.38408   3.39705   3.40058   3.41289
 Alpha virt. eigenvalues --    3.42477   3.44501   3.45124   3.46265   3.47855
 Alpha virt. eigenvalues --    3.48122   3.48906   3.54958   3.57818   3.59305
 Alpha virt. eigenvalues --    3.60420   3.89393   3.98876   4.34334   4.36343
 Alpha virt. eigenvalues --   21.62664  21.78788  22.08173  22.10755  22.11579
 Alpha virt. eigenvalues --   22.14216  22.14946  22.17727  22.20932  22.24856
 Alpha virt. eigenvalues --   22.30756  31.93187  43.62618  43.65326
          Condensed to atoms (all electrons):
               1          2          3          4          5          6
     1  O    7.935080   0.000000  -0.000247   0.000018   0.015311   0.018879
     2  O    0.000000   7.947581   0.000539   0.000041  -0.192497   0.000761
     3  N   -0.000247   0.000539   6.422109   0.376294  -0.116645   0.325646
     4  H    0.000018   0.000041   0.376294   0.412991   0.016719  -0.048815
     5  C    0.015311  -0.192497  -0.116645   0.016719   6.907645  -0.049993
     6  C    0.018879   0.000761   0.325646  -0.048815  -0.049993   5.676792
     7  C   -0.000494  -0.030823   0.365148  -0.041535   0.339782  -0.084789
     8  C   -0.000091   0.705441   0.005214  -0.000563  -0.174348   0.022540
     9  C   -0.031169   0.017183   0.016851  -0.000202  -0.432572  -0.150789
    10  H    0.017534  -0.000042  -0.001228   0.000020  -0.103458   0.024743
    11  H    0.002968   0.000072   0.003733  -0.000002  -0.029833  -0.013803
    12  C   -0.215001  -0.002076  -0.095190   0.014681   0.125043  -0.213449
    13  C    0.708905  -0.000025  -0.000038   0.000360   0.073561   0.197086
    14  C   -0.000004  -0.005622  -0.035912  -0.007937  -0.071216   0.009165
    15  H   -0.000000   0.004328   0.001827   0.001219   0.019035   0.006699
    16  H   -0.000000   0.000819   0.001967   0.000753  -0.012472  -0.000756
    17  H   -0.000000   0.000718  -0.002845   0.000913  -0.004329  -0.002127
    18  C   -0.000131  -0.104915  -0.000569   0.000021  -0.273276   0.000468
    19  H   -0.000004   0.009137   0.000001  -0.000001   0.021576   0.000034
    20  H    0.000072   0.003230   0.000115   0.000000   0.039353  -0.001010
    21  H    0.000025   0.001204   0.000010  -0.000000   0.005922   0.000254
    22  C   -0.106696   0.000000  -0.000123   0.000118   0.004083  -0.004084
    23  H    0.001129  -0.000000  -0.000047  -0.000018  -0.000100   0.011465
    24  H    0.004644  -0.000000  -0.000099  -0.000051  -0.000537  -0.036018
    25  H    0.007911   0.000000   0.000033  -0.000002  -0.000133  -0.001443
    26  C    0.000909   0.000002  -0.031979  -0.005243   0.000098   0.169486
    27  H   -0.000042   0.000000  -0.002359   0.000404   0.000433  -0.036131
    28  H   -0.000251   0.000000   0.003628   0.000923   0.000029  -0.044086
    29  H    0.000027  -0.000000  -0.000681   0.000731  -0.000623  -0.050221
               7          8          9         10         11         12
     1  O   -0.000494  -0.000091  -0.031169   0.017534   0.002968  -0.215001
     2  O   -0.030823   0.705441   0.017183  -0.000042   0.000072  -0.002076
     3  N    0.365148   0.005214   0.016851  -0.001228   0.003733  -0.095190
     4  H   -0.041535  -0.000563  -0.000202   0.000020  -0.000002   0.014681
     5  C    0.339782  -0.174348  -0.432572  -0.103458  -0.029833   0.125043
     6  C   -0.084789   0.022540  -0.150789   0.024743  -0.013803  -0.213449
     7  C    5.465505  -0.157537  -0.168955   0.018335  -0.003221  -0.004181
     8  C   -0.157537   5.274665   0.071126  -0.008689  -0.004883  -0.027295
     9  C   -0.168955   0.071126   6.219962   0.520167   0.392925   0.061298
    10  H    0.018335  -0.008689   0.520167   0.496112  -0.031510  -0.102667
    11  H   -0.003221  -0.004883   0.392925  -0.031510   0.549625  -0.024803
    12  C   -0.004181  -0.027295   0.061298  -0.102667  -0.024803   7.270200
    13  C    0.009199  -0.004352  -0.259679  -0.001946   0.001592  -0.376948
    14  C    0.249444  -0.032411   0.011663   0.000462  -0.001301  -0.005558
    15  H   -0.075353   0.005468  -0.000148  -0.000003   0.000072  -0.001204
    16  H   -0.026630  -0.007257  -0.000752  -0.000048   0.000185  -0.000071
    17  H   -0.023522  -0.002977   0.000676   0.000049  -0.000068   0.001008
    18  C    0.003651   0.299761   0.002907   0.007311  -0.008025  -0.004713
    19  H    0.000062  -0.049144   0.000247   0.000481  -0.000051  -0.000190
    20  H   -0.000341  -0.060157  -0.008959  -0.004273   0.001708   0.006824
    21  H    0.001709  -0.027123  -0.009614  -0.002674   0.001088  -0.004049
    22  C   -0.000109  -0.000036   0.001549   0.001507   0.001326  -0.257241
    23  H    0.000045   0.000003  -0.001877  -0.000115   0.000137  -0.011475
    24  H    0.000013  -0.000012   0.003372  -0.000093  -0.000110   0.067539
    25  H    0.000007   0.000003   0.000256  -0.000152  -0.000027   0.022784
    26  C    0.001373   0.000350   0.018304   0.000004  -0.000704  -0.072441
    27  H   -0.000751  -0.000006  -0.000132   0.000039  -0.000023  -0.020627
    28  H   -0.000808   0.000002  -0.000911   0.000003  -0.000105  -0.008804
    29  H    0.003888  -0.000006  -0.000493  -0.000009   0.000114   0.024835
              13         14         15         16         17         18
     1  O    0.708905  -0.000004  -0.000000  -0.000000  -0.000000  -0.000131
     2  O   -0.000025  -0.005622   0.004328   0.000819   0.000718  -0.104915
     3  N   -0.000038  -0.035912   0.001827   0.001967  -0.002845  -0.000569
     4  H    0.000360  -0.007937   0.001219   0.000753   0.000913   0.000021
     5  C    0.073561  -0.071216   0.019035  -0.012472  -0.004329  -0.273276
     6  C    0.197086   0.009165   0.006699  -0.000756  -0.002127   0.000468
     7  C    0.009199   0.249444  -0.075353  -0.026630  -0.023522   0.003651
     8  C   -0.004352  -0.032411   0.005468  -0.007257  -0.002977   0.299761
     9  C   -0.259679   0.011663  -0.000148  -0.000752   0.000676   0.002907
    10  H   -0.001946   0.000462  -0.000003  -0.000048   0.000049   0.007311
    11  H    0.001592  -0.001301   0.000072   0.000185  -0.000068  -0.008025
    12  C   -0.376948  -0.005558  -0.001204  -0.000071   0.001008  -0.004713
    13  C    5.414051  -0.000100  -0.000011  -0.000000  -0.000024   0.000495
    14  C   -0.000100   5.055895   0.384159   0.427289   0.409821   0.002160
    15  H   -0.000011   0.384159   0.588805  -0.028934  -0.027788   0.000317
    16  H   -0.000000   0.427289  -0.028934   0.501440  -0.023907  -0.000349
    17  H   -0.000024   0.409821  -0.027788  -0.023907   0.508179  -0.000175
    18  C    0.000495   0.002160   0.000317  -0.000349  -0.000175   5.364095
    19  H   -0.000016   0.000014  -0.000005   0.000031  -0.000014   0.392050
    20  H    0.000397   0.000028  -0.000018  -0.000037   0.000008   0.380878
    21  H   -0.000015  -0.000301  -0.000007   0.000031  -0.000006   0.395524
    22  C    0.277807  -0.000025   0.000002  -0.000000   0.000000   0.000026
    23  H   -0.021195  -0.000000   0.000000  -0.000000   0.000000  -0.000002
    24  H   -0.091179  -0.000002   0.000000   0.000000   0.000000   0.000003
    25  H   -0.040711   0.000000   0.000000   0.000000  -0.000000  -0.000001
    26  C   -0.052256   0.001500   0.000046   0.000060  -0.000195   0.000026
    27  H    0.006209  -0.000103   0.000002   0.000004  -0.000014  -0.000001
    28  H   -0.005263   0.000098  -0.000013  -0.000001   0.000001  -0.000000
    29  H   -0.000576  -0.000290   0.000130  -0.000005   0.000004   0.000000
              19         20         21         22         23         24
     1  O   -0.000004   0.000072   0.000025  -0.106696   0.001129   0.004644
     2  O    0.009137   0.003230   0.001204   0.000000  -0.000000  -0.000000
     3  N    0.000001   0.000115   0.000010  -0.000123  -0.000047  -0.000099
     4  H   -0.000001   0.000000  -0.000000   0.000118  -0.000018  -0.000051
     5  C    0.021576   0.039353   0.005922   0.004083  -0.000100  -0.000537
     6  C    0.000034  -0.001010   0.000254  -0.004084   0.011465  -0.036018
     7  C    0.000062  -0.000341   0.001709  -0.000109   0.000045   0.000013
     8  C   -0.049144  -0.060157  -0.027123  -0.000036   0.000003  -0.000012
     9  C    0.000247  -0.008959  -0.009614   0.001549  -0.001877   0.003372
    10  H    0.000481  -0.004273  -0.002674   0.001507  -0.000115  -0.000093
    11  H   -0.000051   0.001708   0.001088   0.001326   0.000137  -0.000110
    12  C   -0.000190   0.006824  -0.004049  -0.257241  -0.011475   0.067539
    13  C   -0.000016   0.000397  -0.000015   0.277807  -0.021195  -0.091179
    14  C    0.000014   0.000028  -0.000301  -0.000025  -0.000000  -0.000002
    15  H   -0.000005  -0.000018  -0.000007   0.000002   0.000000   0.000000
    16  H    0.000031  -0.000037   0.000031  -0.000000  -0.000000   0.000000
    17  H   -0.000014   0.000008  -0.000006   0.000000   0.000000   0.000000
    18  C    0.392050   0.380878   0.395524   0.000026  -0.000002   0.000003
    19  H    0.494743  -0.020575  -0.009179  -0.000000   0.000000   0.000000
    20  H   -0.020575   0.540573  -0.027596   0.000013  -0.000000  -0.000000
    21  H   -0.009179  -0.027596   0.508815  -0.000014   0.000000  -0.000000
    22  C   -0.000000   0.000013  -0.000014   5.424052   0.399594   0.399800
    23  H    0.000000  -0.000000   0.000000   0.399594   0.495617  -0.027373
    24  H    0.000000  -0.000000  -0.000000   0.399800  -0.027373   0.540125
    25  H   -0.000000  -0.000000  -0.000000   0.385407  -0.007558  -0.021602
    26  C    0.000000  -0.000014   0.000006  -0.026939  -0.016034   0.015344
    27  H   -0.000000  -0.000000   0.000000  -0.010683   0.001141  -0.001313
    28  H   -0.000000  -0.000000  -0.000000   0.008765  -0.000516  -0.010948
    29  H    0.000000   0.000000  -0.000000   0.002009   0.000242   0.000749
              25         26         27         28         29
     1  O    0.007911   0.000909  -0.000042  -0.000251   0.000027
     2  O    0.000000   0.000002   0.000000   0.000000  -0.000000
     3  N    0.000033  -0.031979  -0.002359   0.003628  -0.000681
     4  H   -0.000002  -0.005243   0.000404   0.000923   0.000731
     5  C   -0.000133   0.000098   0.000433   0.000029  -0.000623
     6  C   -0.001443   0.169486  -0.036131  -0.044086  -0.050221
     7  C    0.000007   0.001373  -0.000751  -0.000808   0.003888
     8  C    0.000003   0.000350  -0.000006   0.000002  -0.000006
     9  C    0.000256   0.018304  -0.000132  -0.000911  -0.000493
    10  H   -0.000152   0.000004   0.000039   0.000003  -0.000009
    11  H   -0.000027  -0.000704  -0.000023  -0.000105   0.000114
    12  C    0.022784  -0.072441  -0.020627  -0.008804   0.024835
    13  C   -0.040711  -0.052256   0.006209  -0.005263  -0.000576
    14  C    0.000000   0.001500  -0.000103   0.000098  -0.000290
    15  H    0.000000   0.000046   0.000002  -0.000013   0.000130
    16  H    0.000000   0.000060   0.000004  -0.000001  -0.000005
    17  H   -0.000000  -0.000195  -0.000014   0.000001   0.000004
    18  C   -0.000001   0.000026  -0.000001  -0.000000   0.000000
    19  H   -0.000000   0.000000  -0.000000  -0.000000   0.000000
    20  H   -0.000000  -0.000014  -0.000000  -0.000000   0.000000
    21  H   -0.000000   0.000006   0.000000  -0.000000  -0.000000
    22  C    0.385407  -0.026939  -0.010683   0.008765   0.002009
    23  H   -0.007558  -0.016034   0.001141  -0.000516   0.000242
    24  H   -0.021602   0.015344  -0.001313  -0.010948   0.000749
    25  H    0.490464   0.001815   0.000092   0.000931  -0.000044
    26  C    0.001815   5.259013   0.430226   0.426778   0.390046
    27  H    0.000092   0.430226   0.481295  -0.023922  -0.019821
    28  H    0.000931   0.426778  -0.023922   0.510484  -0.027315
    29  H   -0.000044   0.390046  -0.019821  -0.027315   0.524481
 Mulliken charges:
               1
     1  O   -0.359281
     2  O   -0.355055
     3  N   -0.235155
     4  H    0.278162
     5  C   -0.106558
     6  C    0.273496
     7  C    0.160887
     8  C    0.172313
     9  C   -0.272237
    10  H    0.170141
    11  H    0.162924
    12  C   -0.146227
    13  C    0.164671
    14  C   -0.390916
    15  H    0.121372
    16  H    0.168639
    17  H    0.166612
    18  C   -0.457536
    19  H    0.160802
    20  H    0.149783
    21  H    0.165987
    22  C   -0.500109
    23  H    0.176935
    24  H    0.157747
    25  H    0.161970
    26  C   -0.509579
    27  H    0.196084
    28  H    0.171299
    29  H    0.152828
 Sum of Mulliken charges =  -0.00000
 Mulliken charges with hydrogens summed into heavy atoms:
               1
     1  O   -0.359281
     2  O   -0.355055
     3  N    0.043007
     5  C   -0.106558
     6  C    0.273496
     7  C    0.160887
     8  C    0.172313
     9  C    0.060829
    12  C   -0.146227
    13  C    0.164671
    14  C    0.065708
    18  C    0.019036
    22  C   -0.003457
    26  C    0.010632
 Electronic spatial extent (au):  <R**2>=           3180.7777
 Charge=             -0.0000 electrons
 Dipole moment (field-independent basis, Debye):
    X=              3.4476    Y=              6.7470    Z=             -0.2788  Tot=              7.5819
 Quadrupole moment (field-independent basis, Debye-Ang):
   XX=            -95.6974   YY=            -79.0727   ZZ=            -85.0601
   XY=             12.3374   XZ=              5.4845   YZ=             -1.3854
 Traceless Quadrupole moment (field-independent basis, Debye-Ang):
   XX=             -9.0873   YY=              7.5374   ZZ=              1.5500
   XY=             12.3374   XZ=              5.4845   YZ=             -1.3854
 Octapole moment (field-independent basis, Debye-Ang**2):
  XXX=             97.3182  YYY=             59.3410  ZZZ=              2.2610  XYY=            -33.8993
  XXY=             27.1982  XXZ=             -9.8944  XZZ=              2.2498  YZZ=             -1.6483
  YYZ=              3.2041  XYZ=             -5.0892
 Hexadecapole moment (field-independent basis, Debye-Ang**3):
 XXXX=          -2977.7743 YYYY=          -1277.6982 ZZZZ=           -162.0151 XXXY=             37.8850
 XXXZ=             62.7791 YYYX=             84.8895 YYYZ=            -21.5403 ZZZX=             -2.7713
 ZZZY=              6.2831 XXYY=           -687.1767 XXZZ=           -486.1890 YYZZ=           -243.2473
 XXYZ=             -6.7556 YYXZ=              5.8455 ZZXY=             -1.6897
 N-N= 9.007021792464D+02 E-N=-3.277562027398D+03  KE= 6.307084351048D+02
 No NMR shielding tensors so no spin-rotation constants.
 Leave Link  601 at Fri Jan 23 22:58:24 2026, MaxMem=  2147483648 cpu:               1.8 elap:               0.1
 (Enter /data/home/wyx/g16/l9999.exe)
 1\1\GINC-CN012\SP\RCAM-B3LYP\TZVP\C11H15N1O2\WYX\23-Jan-2026\0\\#p CAM
 -B3LYP TZVP em=gd3bj scrf=(Solvent=TetraHydroFuran,NonEquilibrium=Read
 ) Geom=Check Guess=Read\\Title Card Required\\0,1\O,0,2.834186,-1.5630
 35,0.17172\O,0,-3.416699,-1.616145,0.114221\N,0,-0.629619,1.508785,-0.
 397542\H,0,-0.937968,2.465585,-0.452661\C,0,-1.235438,-0.756829,-0.227
 48\C,0,0.705234,1.293201,-0.120626\C,0,-1.606629,0.540993,-0.302298\C,
 0,-2.225859,-1.825376,-0.08503\C,0,0.22442,-1.117347,-0.384186\H,0,0.4
 78874,-1.968317,0.243302\H,0,0.431192,-1.450627,-1.409812\C,0,1.152149
 ,0.021771,-0.02374\C,0,2.511446,-0.392312,0.335612\C,0,-2.999209,1.084
 82,-0.288085\H,0,-3.001636,2.130796,-0.595318\H,0,-3.651328,0.514082,-
 0.942405\H,0,-3.42642,1.014968,0.712035\C,0,-1.732591,-3.247712,-0.191
 248\H,0,-2.587914,-3.91708,-0.229149\H,0,-1.108105,-3.392168,-1.073454
 \H,0,-1.122147,-3.500918,0.678086\C,0,3.525521,0.546356,0.944339\H,0,4
 .041963,1.104865,0.161825\H,0,3.085731,1.258676,1.637572\H,0,4.264812,
 -0.058829,1.463584\C,0,1.468584,2.573653,0.035965\H,0,1.484843,2.89139
 6,1.079762\H,0,2.489817,2.495514,-0.315468\H,0,0.982789,3.361234,-0.53
 9521\\Version=ES64L-G16RevA.03\State=1-A\HF=-633.3278032\RMSD=4.478e-0
 9\Dipole=0.3996244,2.9524938,-0.1454567\Quadrupole=-11.9471452,10.0408
 748,1.9062704,3.2249556,2.5941845,0.5370887\PG=C01 [X(C11H15N1O2)]\\@


 BE NOT THE FIRST BY WHOM THE NEW ARE TRIED,
 NOR YET THE THE LAST TO LAY THE OLD ASIDE.

                          -- ALEXANDER POPE
 Job cpu time:       0 days  0 hours 12 minutes 46.4 seconds.
 Elapsed time:       0 days  0 hours  0 minutes 48.8 seconds.
 File lengths (MBytes):  RWF=    335 Int=      0 D2E=      0 Chk=     67 Scr=      1
 Normal termination of Gaussian 16 at Fri Jan 23 22:58:25 2026.
