 Entering Gaussian System, Link 0=g16
 Input=DDL-S1-cLR-13.gjf
 Output=DDL-S1-cLR-13.log
 Initial command:
 /data/home/wyx/g16/l1.exe "/scr/tmp/wyx/13106/Gau-1980837.inp" -scrdir="/scr/tmp/wyx/13106/"
 Entering Link 1 = /data/home/wyx/g16/l1.exe PID=   1980838.
  
 Copyright (c) 1988,1990,1992,1993,1995,1998,2003,2009,2016,
            Gaussian, Inc.  All Rights Reserved.
  
 This is part of the Gaussian(R) 16 program.  It is based on
 the Gaussian(R) 09 system (copyright 2009, Gaussian, Inc.),
 the Gaussian(R) 03 system (copyright 2003, Gaussian, Inc.),
 the Gaussian(R) 98 system (copyright 1998, Gaussian, Inc.),
 the Gaussian(R) 94 system (copyright 1995, Gaussian, Inc.),
 the Gaussian 92(TM) system (copyright 1992, Gaussian, Inc.),
 the Gaussian 90(TM) system (copyright 1990, Gaussian, Inc.),
 the Gaussian 88(TM) system (copyright 1988, Gaussian, Inc.),
 the Gaussian 86(TM) system (copyright 1986, Carnegie Mellon
 University), and the Gaussian 82(TM) system (copyright 1983,
 Carnegie Mellon University). Gaussian is a federally registered
 trademark of Gaussian, Inc.
  
 This software contains proprietary and confidential information,
 including trade secrets, belonging to Gaussian, Inc.
  
 This software is provided under written license and may be
 used, copied, transmitted, or stored only in accord with that
 written license.
  
 The following legend is applicable only to US Government
 contracts under FAR:
  
                    RESTRICTED RIGHTS LEGEND
  
 Use, reproduction and disclosure by the US Government is
 subject to restrictions as set forth in subparagraphs (a)
 and (c) of the Commercial Computer Software - Restricted
 Rights clause in FAR 52.227-19.
  
 Gaussian, Inc.
 340 Quinnipiac St., Bldg. 40, Wallingford CT 06492
  
  
 ---------------------------------------------------------------
 Warning -- This program may not be used in any manner that
 competes with the business of Gaussian, Inc. or will provide
 assistance to any competitor of Gaussian, Inc.  The licensee
 of this program is prohibited from giving any competitor of
 Gaussian, Inc. access to this program.  By using this program,
 the user acknowledges that Gaussian, Inc. is engaged in the
 business of creating and licensing software in the field of
 computational chemistry and represents and warrants to the
 licensee that it is not a competitor of Gaussian, Inc. and that
 it will not use this program in any manner prohibited above.
 ---------------------------------------------------------------
  

 Cite this work as:
 Gaussian 16, Revision A.03,
 M. J. Frisch, G. W. Trucks, H. B. Schlegel, G. E. Scuseria, 
 M. A. Robb, J. R. Cheeseman, G. Scalmani, V. Barone, 
 G. A. Petersson, H. Nakatsuji, X. Li, M. Caricato, A. V. Marenich, 
 J. Bloino, B. G. Janesko, R. Gomperts, B. Mennucci, H. P. Hratchian, 
 J. V. Ortiz, A. F. Izmaylov, J. L. Sonnenberg, D. Williams-Young, 
 F. Ding, F. Lipparini, F. Egidi, J. Goings, B. Peng, A. Petrone, 
 T. Henderson, D. Ranasinghe, V. G. Zakrzewski, J. Gao, N. Rega, 
 G. Zheng, W. Liang, M. Hada, M. Ehara, K. Toyota, R. Fukuda, 
 J. Hasegawa, M. Ishida, T. Nakajima, Y. Honda, O. Kitao, H. Nakai, 
 T. Vreven, K. Throssell, J. A. Montgomery, Jr., J. E. Peralta, 
 F. Ogliaro, M. J. Bearpark, J. J. Heyd, E. N. Brothers, K. N. Kudin, 
 V. N. Staroverov, T. A. Keith, R. Kobayashi, J. Normand, 
 K. Raghavachari, A. P. Rendell, J. C. Burant, S. S. Iyengar, 
 J. Tomasi, M. Cossi, J. M. Millam, M. Klene, C. Adamo, R. Cammi, 
 J. W. Ochterski, R. L. Martin, K. Morokuma, O. Farkas, 
 J. B. Foresman, and D. J. Fox, Gaussian, Inc., Wallingford CT, 2016.
 
 ******************************************
 Gaussian 16:  ES64L-G16RevA.03 25-Dec-2016
                23-Jan-2026 
 ******************************************
 %nprocshared=16
 Will use up to   16 processors via shared memory.
 %mem=16GB
 %oldchk=DDL-LR-13.chk
 %chk=DDL-S1-cLR-13.chk
 Copying data from "DDL-LR-13.chk" to current chk file "DDL-S1-cLR-13.chk"
 IOpt=  2 FromEx=T IUOpen= 4 IOptOp= 5 NList=   0 IFRang= 0 IUIn= 4 IUOut= 2.
 ----------------------------------------------------------------------
 #p CAM-B3LYP TZVP em=gd3bj td(nstates=6,root=1) scrf=(Solvent=TetraHyd
 roFuran,CorrectedLR,NonEquilibrium=Save) Geom=Check Guess=Read
 ----------------------------------------------------------------------
 1/29=2,30=1,38=1,172=1/1;
 2/12=2,40=1/2;
 3/5=19,7=101,11=9,14=-4,25=1,30=1,70=9002201,71=1,72=20,74=-40,116=-2,124=41/1,2,3,8;
 4/5=1/1;
 5/5=2,38=6,53=20/2;
 8/6=1,10=1,107=1,108=6/1;
 9/8=1,15=1,41=6,42=1,70=2,73=22/14;
 10/5=4,13=10,28=1,74=20/2;
 6/7=2,8=2,9=2,10=2,22=-1/1;
 99/5=1,9=1/99;
 Leave Link    1 at Fri Jan 23 21:15:48 2026, MaxMem=  2147483648 cpu:               0.8 elap:               0.1
 (Enter /data/home/wyx/g16/l101.exe)
 -------------------
 Title Card Required
 -------------------
 Structure from the checkpoint file:  "DDL-S1-cLR-13.chk"
 Charge =  0 Multiplicity = 1
 Z-Matrix found in chk file.
 O,0,2.835855,-1.565559,0.140749
 O,0,-3.420622,-1.623623,0.055146
 N,0,-0.637726,1.511206,-0.348608
 H,0,-0.946975,2.468788,-0.402347
 C,0,-1.238627,-0.757933,-0.221327
 C,0,0.699087,1.302599,-0.098194
 C,0,-1.613688,0.549488,-0.287498
 C,0,-2.222736,-1.829948,-0.107701
 C,0,0.217406,-1.109002,-0.338689
 H,0,0.462263,-1.950341,0.308273
 H,0,0.44144,-1.476815,-1.350144
 C,0,1.151045,0.022948,-0.008595
 C,0,2.513242,-0.394503,0.3205
 C,0,-3.003807,1.089688,-0.302554
 H,0,-3.006462,2.146982,-0.563436
 H,0,-3.628662,0.549404,-1.005601
 H,0,-3.472467,0.975425,0.672511
 C,0,-1.728746,-3.250141,-0.190002
 H,0,-2.575128,-3.921532,-0.289464
 H,0,-1.047331,-3.400214,-1.024576
 H,0,-1.183133,-3.515677,0.715296
 C,0,3.535099,0.542021,0.918365
 H,0,4.049104,1.096088,0.130895
 H,0,3.103883,1.258365,1.612781
 H,0,4.275366,-0.064516,1.434805
 C,0,1.467934,2.579096,0.032955
 H,0,1.538383,2.893104,1.074588
 H,0,2.471446,2.498754,-0.365185
 H,0,0.964558,3.375848,-0.512946
 Recover connectivity data from disk.
 ITRead=  0  0  0  0  0  0  0  0  0  0  0  0  0  0  0  0  0  0  0  0
 ITRead=  0  0  0  0  0  0  0  0  0
 MicOpt= -1 -1 -1 -1 -1 -1 -1 -1 -1 -1 -1 -1 -1 -1 -1 -1 -1 -1 -1 -1
 MicOpt= -1 -1 -1 -1 -1 -1 -1 -1 -1
 NAtoms=     29 NQM=       29 NQMF=       0 NMMI=      0 NMMIF=      0
                NMic=       0 NMicF=      0.
                    Isotopes and Nuclear Properties:
 (Nuclear quadrupole moments (NQMom) in fm**2, nuclear magnetic moments (NMagM)
  in nuclear magnetons)

  Atom         1           2           3           4           5           6           7           8           9          10
 IAtWgt=          16          16          14           1          12          12          12          12          12           1
 AtmWgt=  15.9949146  15.9949146  14.0030740   1.0078250  12.0000000  12.0000000  12.0000000  12.0000000  12.0000000   1.0078250
 NucSpn=           0           0           2           1           0           0           0           0           0           1
 AtZEff=   5.6000000   5.6000000   4.5500000   1.0000000   3.6000000   3.6000000   3.6000000   3.6000000   3.6000000   1.0000000
 NQMom=    0.0000000   0.0000000   2.0440000   0.0000000   0.0000000   0.0000000   0.0000000   0.0000000   0.0000000   0.0000000
 NMagM=    0.0000000   0.0000000   0.4037610   2.7928460   0.0000000   0.0000000   0.0000000   0.0000000   0.0000000   2.7928460
 AtZNuc=   8.0000000   8.0000000   7.0000000   1.0000000   6.0000000   6.0000000   6.0000000   6.0000000   6.0000000   1.0000000

  Atom        11          12          13          14          15          16          17          18          19          20
 IAtWgt=           1          12          12          12           1           1           1          12           1           1
 AtmWgt=   1.0078250  12.0000000  12.0000000  12.0000000   1.0078250   1.0078250   1.0078250  12.0000000   1.0078250   1.0078250
 NucSpn=           1           0           0           0           1           1           1           0           1           1
 AtZEff=   1.0000000   3.6000000   3.6000000   3.6000000   1.0000000   1.0000000   1.0000000   3.6000000   1.0000000   1.0000000
 NQMom=    0.0000000   0.0000000   0.0000000   0.0000000   0.0000000   0.0000000   0.0000000   0.0000000   0.0000000   0.0000000
 NMagM=    2.7928460   0.0000000   0.0000000   0.0000000   2.7928460   2.7928460   2.7928460   0.0000000   2.7928460   2.7928460
 AtZNuc=   1.0000000   6.0000000   6.0000000   6.0000000   1.0000000   1.0000000   1.0000000   6.0000000   1.0000000   1.0000000

  Atom        21          22          23          24          25          26          27          28          29
 IAtWgt=           1          12           1           1           1          12           1           1           1
 AtmWgt=   1.0078250  12.0000000   1.0078250   1.0078250   1.0078250  12.0000000   1.0078250   1.0078250   1.0078250
 NucSpn=           1           0           1           1           1           0           1           1           1
 AtZEff=   1.0000000   3.6000000   1.0000000   1.0000000   1.0000000   3.6000000   1.0000000   1.0000000   1.0000000
 NQMom=    0.0000000   0.0000000   0.0000000   0.0000000   0.0000000   0.0000000   0.0000000   0.0000000   0.0000000
 NMagM=    2.7928460   0.0000000   2.7928460   2.7928460   2.7928460   0.0000000   2.7928460   2.7928460   2.7928460
 AtZNuc=   1.0000000   6.0000000   1.0000000   1.0000000   1.0000000   6.0000000   1.0000000   1.0000000   1.0000000
 Leave Link  101 at Fri Jan 23 21:15:51 2026, MaxMem=  2147483648 cpu:               0.9 elap:               0.1
 (Enter /data/home/wyx/g16/l202.exe)
                          Input orientation:                          
 ---------------------------------------------------------------------
 Center     Atomic      Atomic             Coordinates (Angstroms)
 Number     Number       Type             X           Y           Z
 ---------------------------------------------------------------------
      1          8           0        2.835855   -1.565559    0.140749
      2          8           0       -3.420622   -1.623623    0.055146
      3          7           0       -0.637726    1.511206   -0.348608
      4          1           0       -0.946975    2.468788   -0.402347
      5          6           0       -1.238627   -0.757933   -0.221327
      6          6           0        0.699087    1.302599   -0.098194
      7          6           0       -1.613688    0.549488   -0.287498
      8          6           0       -2.222736   -1.829948   -0.107701
      9          6           0        0.217406   -1.109002   -0.338689
     10          1           0        0.462263   -1.950341    0.308273
     11          1           0        0.441440   -1.476815   -1.350144
     12          6           0        1.151045    0.022948   -0.008595
     13          6           0        2.513242   -0.394503    0.320500
     14          6           0       -3.003807    1.089688   -0.302554
     15          1           0       -3.006462    2.146982   -0.563436
     16          1           0       -3.628662    0.549404   -1.005601
     17          1           0       -3.472467    0.975425    0.672511
     18          6           0       -1.728746   -3.250141   -0.190002
     19          1           0       -2.575128   -3.921532   -0.289464
     20          1           0       -1.047331   -3.400214   -1.024576
     21          1           0       -1.183133   -3.515677    0.715296
     22          6           0        3.535099    0.542021    0.918365
     23          1           0        4.049104    1.096088    0.130895
     24          1           0        3.103883    1.258365    1.612781
     25          1           0        4.275366   -0.064516    1.434805
     26          6           0        1.467934    2.579096    0.032955
     27          1           0        1.538383    2.893104    1.074588
     28          1           0        2.471446    2.498754   -0.365185
     29          1           0        0.964558    3.375848   -0.512946
 ---------------------------------------------------------------------
                    Distance matrix (angstroms):
                    1          2          3          4          5
     1  O    0.000000
     2  O    6.257332   0.000000
     3  N    4.666017   4.211256   0.000000
     4  H    5.557042   4.803754   1.007713   0.000000
     5  C    4.169504   2.363675   2.350803   3.244928   0.000000
     6  C    3.584578   5.055521   1.375970   2.040104   2.831199
     7  C    4.945225   2.846898   1.371546   2.035045   1.361763
     8  C    5.071585   1.226385   3.705888   4.493719   1.459657
     9  C    2.700848   3.695293   2.756236   3.763033   1.502350
    10  H    2.410407   3.904819   3.691040   4.692508   2.143674
    11  H    2.822031   4.112410   3.331057   4.288799   2.147940
    12  C    2.320397   4.859568   2.351642   3.246361   2.523007
    13  C    1.227909   6.065632   3.742731   4.549071   3.808173
    14  C    6.430280   2.768346   2.403776   2.478393   2.556592
    15  H    6.957838   3.843388   2.461965   2.090693   3.417720
    16  H    6.897620   2.427038   3.209735   3.352521   2.834869
    17  H    6.821605   2.671868   3.060311   3.124670   2.965387
    18  C    4.876761   2.359683   4.887321   5.776020   2.540138
    19  H    5.917299   2.472651   5.768160   6.595439   3.435002
    20  H    4.450065   3.155089   4.974611   5.902747   2.768294
    21  H    4.503924   3.003668   5.167099   6.092513   2.912987
    22  C    2.352769   7.336022   4.467327   5.054275   5.077129
    23  H    2.925138   7.949803   4.729548   5.208595   5.614406
    24  H    3.195820   7.300770   4.232093   4.683515   5.127066
    25  H    2.449470   7.972610   5.459115   6.088153   5.798941
    26  C    4.365890   6.446807   2.391607   2.456306   4.304172
    27  H    4.736577   6.784675   2.944585   2.922052   4.766681
    28  H    4.111861   7.203273   3.262281   3.418754   4.938760
    29  H    5.324150   6.674372   2.463983   2.118714   4.693316
                    6          7          8          9         10
     6  C    0.000000
     7  C    2.439660   0.000000
     8  C    4.283689   2.462718   0.000000
     9  C    2.470966   2.471055   2.554880   0.000000
    10  H    3.286780   3.303583   2.719696   1.089204   0.000000
    11  H    3.059232   3.075495   2.960777   1.099327   1.724821
    12  C    1.360074   2.828211   3.850382   1.503980   2.113929
    13  C    2.519250   4.276954   4.967227   2.493171   2.574354
    14  C    3.714636   1.491467   3.028583   3.900225   4.650648
    15  H    3.828907   2.137276   4.078957   4.587512   5.438749
    16  H    4.485544   2.139110   2.905885   4.241146   4.970982
    17  H    4.254749   2.134970   3.168703   4.356894   4.916795
    18  C    5.160450   3.802621   1.505904   2.897256   2.595819
    19  H    6.168356   4.573225   2.128836   3.963710   3.669963
    20  H    5.101432   4.057609   2.165173   2.705486   2.481429
    21  H    5.236440   4.209102   2.144710   2.977327   2.307222
    22  C    3.107223   5.288116   6.311237   3.913202   4.003299
    23  H    3.364185   5.704475   6.924925   4.445767   4.709312
    24  H    2.951684   5.135080   6.393012   4.212412   4.356110
    25  H    4.124180   6.166384   6.908068   4.550085   4.400587
    26  C    1.495918   3.703835   5.751565   3.912034   4.647900
    27  H    2.146984   4.157327   6.152320   4.445130   5.020382
    28  H    2.154838   4.527029   6.390564   4.254092   4.927962
    29  H    2.130928   3.832296   6.117465   4.549998   5.412485
                   11         12         13         14         15
    11  H    0.000000
    12  C    2.133678   0.000000
    13  C    2.873119   1.462241   0.000000
    14  C    4.422003   4.299668   5.747073   0.000000
    15  H    5.063481   4.701514   6.140653   1.089007   0.000000
    16  H    4.559606   4.910883   6.353935   1.084724   1.770564
    17  H    5.042151   4.769484   6.150555   1.087865   1.765580
    18  C    3.033203   4.363395   5.139041   4.524662   5.558862
    19  H    4.025092   5.433431   6.221214   5.029539   6.089989
    20  H    2.453955   4.193222   4.849867   4.950589   5.901036
    21  H    3.325994   4.300497   4.853945   5.055716   6.084849
    22  C    4.335038   2.610058   1.509540   6.674419   6.896641
    23  H    4.672103   3.093515   2.148647   7.066221   7.167111
    24  H    4.832053   2.822887   2.179637   6.403190   6.546898
    25  H    4.944645   3.442737   2.110841   7.572117   7.868209
    26  C    4.406480   2.576051   3.165066   4.725185   4.534603
    27  H    5.116522   3.092105   3.511034   5.077432   4.888296
    28  H    4.571238   2.828468   2.973692   5.654006   5.492770
    29  H    4.952059   3.395745   4.160361   4.584617   4.157122
                   16         17         18         19         20
    16  H    0.000000
    17  H    1.738376   0.000000
    18  C    4.325670   4.651871   0.000000
    19  H    4.648877   5.070582   1.084906   0.000000
    20  H    4.718380   5.282765   1.087824   1.773789   0.000000
    21  H    5.046482   5.041119   1.089847   1.764061   1.748979
    22  C    7.417626   7.025259   6.581568   7.662704   6.349402
    23  H    7.780654   7.542012   7.237143   8.320677   6.893874
    24  H    7.258492   6.649251   6.850617   7.918399   6.774259
    25  H    8.294947   7.854393   6.988388   8.048537   6.745853
    26  C    5.583327   5.233388   6.651953   7.662145   6.572448
    27  H    6.043051   5.380314   7.071971   8.075944   7.120271
    28  H    6.435947   6.223138   7.121945   8.166622   6.900320
    29  H    5.415641   5.182136   7.159742   8.113635   7.086923
                   21         22         23         24         25
    21  H    0.000000
    22  C    6.226384   0.000000
    23  H    6.999015   1.091467   0.000000
    24  H    6.478847   1.086881   1.765152   0.000000
    25  H    6.497955   1.087471   1.760221   1.775968   0.000000
    26  C    6.681317   3.034270   2.978480   2.629926   4.103114
    27  H    6.971959   3.088506   3.228551   2.326545   4.045782
    28  H    7.120166   2.570537   2.168541   2.418861   3.614477
    29  H    7.322177   4.084961   3.889249   3.684991   5.156674
                   26         27         28         29
    26  C    0.000000
    27  H    1.090213   0.000000
    28  H    1.082593   1.760416   0.000000
    29  H    1.089132   1.755728   1.749811   0.000000
 Stoichiometry    C11H15NO2
 Framework group  C1[X(C11H15NO2)]
 Deg. of freedom    81
 Full point group                 C1      NOp   1
 RotChk:  IX=0 Diff= 5.36D-16
 Largest Abelian subgroup         C1      NOp   1
 Largest concise Abelian subgroup C1      NOp   1
                         Standard orientation:                         
 ---------------------------------------------------------------------
 Center     Atomic      Atomic             Coordinates (Angstroms)
 Number     Number       Type             X           Y           Z
 ---------------------------------------------------------------------
      1          8           0        2.287942   -2.278326   -0.203039
      2          8           0       -3.597513   -0.247166    0.421471
      3          7           0        0.024430    1.801840   -0.224890
      4          1           0        0.052354    2.809161   -0.221485
      5          6           0       -1.290383   -0.141604   -0.081486
      6          6           0        1.230544    1.146024   -0.132764
      7          6           0       -1.207382    1.217612   -0.075044
      8          6           0       -2.561781   -0.830058    0.118955
      9          6           0       -0.057240   -0.949286   -0.371425
     10          1           0       -0.047287   -1.861058    0.224342
     11          1           0       -0.072041   -1.309836   -1.409839
     12          6           0        1.231225   -0.214021   -0.124045
     13          6           0        2.398528   -1.079522    0.038628
     14          6           0       -2.328227    2.189257    0.080156
     15          1           0       -2.000249    3.200780   -0.154768
     16          1           0       -3.165241    1.930354   -0.559376
     17          1           0       -2.708566    2.179596    1.099321
     18          6           0       -2.586214   -2.326139   -0.051021
     19          1           0       -3.614811   -2.670657   -0.068826
     20          1           0       -2.081828   -2.644381   -0.960790
     21          1           0       -2.074910   -2.811347    0.780188
     22          6           0        3.730330   -0.573454    0.537536
     23          1           0        4.320025   -0.176083   -0.290508
     24          1           0        3.637131    0.202889    1.292464
     25          1           0        4.270263   -1.421227    0.952681
     26          6           0        2.393676    2.083971   -0.060998
     27          1           0        2.669038    2.294150    0.972716
     28          1           0        3.266508    1.698289   -0.572290
     29          1           0        2.136712    3.033744   -0.528020
 ---------------------------------------------------------------------
 Rotational constants (GHZ):           1.0790756           0.4907163           0.3463919
 Leave Link  202 at Fri Jan 23 21:15:51 2026, MaxMem=  2147483648 cpu:               0.0 elap:               0.0
 (Enter /data/home/wyx/g16/l301.exe)
 Standard basis: TZVP (5D, 7F)
 Ernie: Thresh=  0.10000D-02 Tol=  0.10000D-05 Strict=F.
 There are   370 symmetry adapted cartesian basis functions of A   symmetry.
 There are   356 symmetry adapted basis functions of A   symmetry.
   356 basis functions,   610 primitive gaussians,   370 cartesian basis functions
    52 alpha electrons       52 beta electrons
       nuclear repulsion energy       900.8120873123 Hartrees.
 IExCor=20419 DFT=T Ex+Corr=CAM-B3LYP ExCW=0 ScaHFX=  1.000000
 ScaDFX=  1.000000  1.000000  1.000000  0.810000 ScalE2=  1.000000  1.000000
 IRadAn=      5 IRanWt=     -1 IRanGd=            0 ICorTp=0 IEmpDi=141
 HFx  wShort=  0.000000 wLong=  0.330000 cFull=  0.190000 cShort=  0.000000 cLong=  0.460000
 DFx  wShort=  0.000000 wLong=  0.330000 cFull=  0.190000 cShort=  0.000000 cLong=  0.460000
 NAtoms=   29 NActive=   29 NUniq=   29 SFac= 1.00D+00 NAtFMM=   60 NAOKFM=F Big=F
 Integral buffers will be    131072 words long.
 Raffenetti 1 integral format.
 Two-electron integral symmetry is turned on.
 R6Disp:  Grimme-D3(BJ) Dispersion energy=       -0.0262006212 Hartrees.
 Nuclear repulsion after empirical dispersion term =      900.7858866911 Hartrees.
 ------------------------------------------------------------------------------
 Polarizable Continuum Model (PCM)
 =================================
 Model                : PCM.
 Atomic radii         : UFF (Universal Force Field).
 Polarization charges : Total charges.
 Charge compensation  : None.
 Solution method      : On-the-fly selection.
 Cavity type          : Scaled VdW (van der Waals Surface) (Alpha=1.100).
 Cavity algorithm     : GePol (No added spheres)
                        Default sphere list used, NSphG=   29.
                        Lebedev-Laikov grids with approx.  5.0 points / Ang**2.
                        Smoothing algorithm: York/Karplus (Gamma=1.0000).
                        Polarization charges: spherical gaussians, with
                                              point-specific exponents (IZeta= 3).
                        Self-potential: point-specific (ISelfS= 7).
                        Self-field    : sphere-specific E.n sum rule (ISelfD= 2).
 1st derivatives      : Analytical E(r).r(x)/FMM algorithm (CHGder, D1EAlg=3).
                        Cavity 1st derivative terms included.
 Solvent              : TetraHydroFuran, Eps=   7.425700 Eps(inf)=   1.974025
 ------------------------------------------------------------------------------
 GePol: Number of generator spheres                  =      29
 GePol: Total number of spheres                      =      29
 GePol: Number of exposed spheres                    =      29 (100.00%)
 GePol: Number of points                             =    2097
 GePol: Average weight of points                     =       0.13
 GePol: Minimum weight of points                     =   0.39D-10
 GePol: Maximum weight of points                     =    0.20577
 GePol: Number of points with low weight             =     145
 GePol: Fraction of low-weight points (<1% of avg)   =       6.91%
 GePol: Cavity surface area                          =    268.555 Ang**2
 GePol: Cavity volume                                =    286.583 Ang**3
 Leave Link  301 at Fri Jan 23 21:15:51 2026, MaxMem=  2147483648 cpu:               0.6 elap:               0.0
 (Enter /data/home/wyx/g16/l302.exe)
 NPDir=0 NMtPBC=     1 NCelOv=     1 NCel=       1 NClECP=     1 NCelD=      1
         NCelK=      1 NCelE2=     1 NClLst=     1 CellRange=     0.0.
 One-electron integrals computed using PRISM.
 One-electron integral symmetry used in STVInt
 NBasis=   356 RedAO= T EigKep=  4.71D-05  NBF=   356
 NBsUse=   356 1.00D-06 EigRej= -1.00D+00 NBFU=   356
 Precomputing XC quadrature grid using
 IXCGrd= 4 IRadAn=           5 IRanWt=          -1 IRanGd=           0 AccXCQ= 0.00D+00.
 Generated NRdTot=       0 NPtTot=           0 NUsed=           0 NTot=          32
 NSgBfM=   366   366   366   366   366 MxSgAt=    29 MxSgA2=    29.
 Leave Link  302 at Fri Jan 23 21:15:52 2026, MaxMem=  2147483648 cpu:               3.1 elap:               0.2
 (Enter /data/home/wyx/g16/l303.exe)
 DipDrv:  MaxL=1.
 Leave Link  303 at Fri Jan 23 21:15:52 2026, MaxMem=  2147483648 cpu:               0.6 elap:               0.0
 (Enter /data/home/wyx/g16/l308.exe)
 Leave Link  308 at Fri Jan 23 21:15:52 2026, MaxMem=  2147483648 cpu:               0.7 elap:               0.1
 (Enter /data/home/wyx/g16/l401.exe)
 Initial guess from the checkpoint file:  "DDL-S1-cLR-13.chk"
 B after Tr=     0.000000    0.000000    0.000000
         Rot=    1.000000    0.000000   -0.000000   -0.000000 Ang=   0.00 deg.
 Guess basis will be translated and rotated to current coordinates.
 JPrj=2 DoOrth=T DoCkMO=T.
 Leave Link  401 at Fri Jan 23 21:15:52 2026, MaxMem=  2147483648 cpu:               2.3 elap:               0.2
 (Enter /data/home/wyx/g16/l502.exe)
 Integral symmetry usage will be decided dynamically.
 Closed shell SCF:
 Using DIIS extrapolation, IDIIS=  1040.
 NGot=  2147483648 LenX=  2147200095 LenY=  2147062754
 Requested convergence on RMS density matrix=1.00D-08 within 128 cycles.
 Requested convergence on MAX density matrix=1.00D-06.
 Requested convergence on             energy=1.00D-06.
 No special actions if energy rises.
 Fock matrices will be formed incrementally for  20 cycles.

 Cycle   1  Pass 1  IDiag  1:
 FoFJK:  IHMeth= 1 ICntrl=       0 DoSepK=T KAlg= 0 I1Cent=           0 FoldK=F
 IRaf=         1 NMat=       1 IRICut=       1 DoRegI=T DoRafI=F ISym2E= 0 IDoP0=0 IntGTp=1.
 FoFCou: FMM=F IPFlag=           0 FMFlag=      100000 FMFlg1=           0
         NFxFlg=           0 DoJE=T BraDBF=F KetDBF=F FulRan=T
         wScrn=  0.000000 ICntrl=       500 IOpCl=  0 I1Cent=           0 NGrid=           0
         NMat0=    1 NMatS0=      1 NMatT0=    0 NMatD0=    1 NMtDS0=    0 NMtDT0=    0
 Symmetry not used in FoFCou.
 Inv3:  Mode=1 IEnd=    13192227.
 Iteration    1 A*A^-1 deviation from unit magnitude is 2.78D-15 for     75.
 Iteration    1 A*A^-1 deviation from orthogonality  is 2.29D-15 for   2023   1555.
 Iteration    1 A^-1*A deviation from unit magnitude is 3.11D-15 for    190.
 Iteration    1 A^-1*A deviation from orthogonality  is 1.81D-15 for   1735   1505.
 E= -633.328427097788    
 DIIS: error= 1.57D-08 at cycle   1 NSaved=   1.
 NSaved= 1 IEnMin= 1 EnMin= -633.328427097788     IErMin= 1 ErrMin= 1.57D-08
 ErrMax= 1.57D-08  0.00D+00 EMaxC= 1.00D-01 BMatC= 6.52D-14 BMatP= 6.52D-14
 IDIUse=1 WtCom= 1.00D+00 WtEn= 0.00D+00
 Coeff-Com:  0.100D+01
 Coeff:      0.100D+01
 Gap=     0.236 Goal=   None    Shift=    0.000
 RMSDP=2.85D-09 MaxDP=8.78D-08              OVMax= 3.46D-07

 Error on total polarization charges =  0.01422
 SCF Done:  E(RCAM-B3LYP) =  -633.328427098     A.U. after    1 cycles
            NFock=  1  Conv=0.29D-08     -V/T= 2.0041
 KE= 6.307330084341D+02 PE=-3.277661676823D+03 EE= 1.112814354600D+03
 Leave Link  502 at Fri Jan 23 21:15:58 2026, MaxMem=  2147483648 cpu:              86.0 elap:               5.7
 (Enter /data/home/wyx/g16/l801.exe)
 DoSCS=F DFT=T ScalE2(SS,OS)=  1.000000  1.000000
 ExpMin= 9.52D-02 ExpMax= 2.70D+04 ExpMxC= 9.22D+02 IAcc=3 IRadAn=         5 AccDes= 0.00D+00
 HarFok:  IExCor=  205 AccDes= 0.00D+00 IRadAn=         5 IDoV=-2 UseB2=F ITyADJ=14
 ICtDFT= 12500011 ScaDFX=  1.000000  1.000000  1.000000  1.000000
 Largest valence mixing into a core orbital is  5.63D-05
 Largest core mixing into a valence orbital is  1.20D-05
 Range of M.O.s used for correlation:    15   356
 NBasis=   356 NAE=    52 NBE=    52 NFC=    14 NFV=     0
 NROrb=    342 NOA=    38 NOB=    38 NVA=   304 NVB=   304

 **** Warning!!: The largest alpha MO coefficient is  0.54850264D+02

 Leave Link  801 at Fri Jan 23 21:16:00 2026, MaxMem=  2147483648 cpu:               1.0 elap:               0.1
 (Enter /data/home/wyx/g16/l914.exe)
 RHF ground state
 Two-electron integrals replicated using symmetry.
 MDV=  2147483648 DFT=T DoStab=F Mixed=T DoRPA=T DoScal=F NonHer=T
 NEqPCM:  Using equilibrium solvation (IEInf=0, Eps=   7.4257, EpsInf=   1.9740)
 Making orbital integer symmetry assigments:
 Orbital symmetries:
       Occupied  (A) (A) (A) (A) (A) (A) (A) (A) (A) (A) (A) (A)
                 (A) (A) (A) (A) (A) (A) (A) (A) (A) (A) (A) (A)
                 (A) (A) (A) (A) (A) (A) (A) (A) (A) (A) (A) (A)
                 (A) (A) (A) (A) (A) (A) (A) (A) (A) (A) (A) (A)
                 (A) (A) (A) (A)
       Virtual   (A) (A) (A) (A) (A) (A) (A) (A) (A) (A) (A) (A)
                 (A) (A) (A) (A) (A) (A) (A) (A) (A) (A) (A) (A)
                 (A) (A) (A) (A) (A) (A) (A) (A) (A) (A) (A) (A)
                 (A) (A) (A) (A) (A) (A) (A) (A) (A) (A) (A) (A)
                 (A) (A) (A) (A) (A) (A) (A) (A) (A) (A) (A) (A)
                 (A) (A) (A) (A) (A) (A) (A) (A) (A) (A) (A) (A)
                 (A) (A) (A) (A) (A) (A) (A) (A) (A) (A) (A) (A)
                 (A) (A) (A) (A) (A) (A) (A) (A) (A) (A) (A) (A)
                 (A) (A) (A) (A) (A) (A) (A) (A) (A) (A) (A) (A)
                 (A) (A) (A) (A) (A) (A) (A) (A) (A) (A) (A) (A)
                 (A) (A) (A) (A) (A) (A) (A) (A) (A) (A) (A) (A)
                 (A) (A) (A) (A) (A) (A) (A) (A) (A) (A) (A) (A)
                 (A) (A) (A) (A) (A) (A) (A) (A) (A) (A) (A) (A)
                 (A) (A) (A) (A) (A) (A) (A) (A) (A) (A) (A) (A)
                 (A) (A) (A) (A) (A) (A) (A) (A) (A) (A) (A) (A)
                 (A) (A) (A) (A) (A) (A) (A) (A) (A) (A) (A) (A)
                 (A) (A) (A) (A) (A) (A) (A) (A) (A) (A) (A) (A)
                 (A) (A) (A) (A) (A) (A) (A) (A) (A) (A) (A) (A)
                 (A) (A) (A) (A) (A) (A) (A) (A) (A) (A) (A) (A)
                 (A) (A) (A) (A) (A) (A) (A) (A) (A) (A) (A) (A)
                 (A) (A) (A) (A) (A) (A) (A) (A) (A) (A) (A) (A)
                 (A) (A) (A) (A) (A) (A) (A) (A) (A) (A) (A) (A)
                 (A) (A) (A) (A) (A) (A) (A) (A) (A) (A) (A) (A)
                 (A) (A) (A) (A) (A) (A) (A) (A) (A) (A) (A) (A)
                 (A) (A) (A) (A) (A) (A) (A) (A) (A) (A) (A) (A)
                 (A) (A) (A) (A)
 PCM Corrected Linear-Response:
 Compute the excitation energies in the ground state reaction field.
    24 initial guesses have been made.
 Convergence on wavefunction:    0.000001000000000
 Davidson Disk Diagonalization:  ConvIn= 1.00D-06 SkipCon=T Conv= 1.00D-06.
 Max sub-space:  2000 roots to seek:    24 dimension of matrix:        23104
 Iteration     1 Dimension    24 NMult     0 NNew     24
 CISAX will form    24 AO SS matrices at one time.
 NMat=    24 NSing=    24 JSym2X= 0.
 FoFJK:  IHMeth= 1 ICntrl=       0 DoSepK=T KAlg= 0 I1Cent=           0 FoldK=F
 IRaf=         1 NMat=      48 IRICut=       1 DoRegI=T DoRafI=F ISym2E= 0 IDoP0=3 IntGTp=3.
 FoFCou: FMM=F IPFlag=           0 FMFlag=      100000 FMFlg1=           0
         NFxFlg=           0 DoJE=F BraDBF=F KetDBF=F FulRan=T
         wScrn=  0.000000 ICntrl=       500 IOpCl=  0 I1Cent=           0 NGrid=           0
         NMat0=   24 NMatS0=     24 NMatT0=    0 NMatD0=   24 NMtDS0=    0 NMtDT0=    0
 Symmetry not used in FoFCou.
 New state      2 was old state      3
 New state      3 was old state      4
 New state      4 was old state      2
 New state      5 was old state      6
 New state      6 was old state      5
 Excitation Energies [eV] at current iteration:
 Root      1 :     3.973240410330229
 Root      2 :     4.321264976985310
 Root      3 :     4.507245116181944
 Root      4 :     5.541064962728680
 Root      5 :     6.177918408350521
 Root      6 :     6.551079498260774
 Root      7 :     6.730018644060785
 Root      8 :     6.803221638128658
 Root      9 :     7.024801326351132
 Root     10 :     7.041054493940107
 Root     11 :     7.292071636454651
 Root     12 :     7.423978944701802
 Root     13 :     7.568464146281420
 Root     14 :     7.646188785503213
 Root     15 :     7.777517588228761
 Root     16 :     8.030403189845519
 Root     17 :     8.127365750222708
 Root     18 :     8.247247213321206
 Root     19 :     8.269934679088086
 Root     20 :     8.565307047160555
 Root     21 :     8.698949303159976
 Root     22 :     8.988454815393563
 Root     23 :     9.105711628595442
 Root     24 :     9.149362625765511
 Iteration     2 Dimension    36 NMult    24 NNew     12
 CISAX will form    12 AO SS matrices at one time.
 NMat=    12 NSing=    12 JSym2X= 0.
 Root      1 not converged, maximum delta is    0.048239986101578
 Root      2 not converged, maximum delta is    0.073798693653821
 Root      3 not converged, maximum delta is    0.091507295907424
 Root      4 not converged, maximum delta is    0.212277653518850
 New state      5 was old state      6
 Root      5 not converged, maximum delta is    0.235268851733574
 New state      6 was old state      5
 Root      6 not converged, maximum delta is    0.135622666530860
 Excitation Energies [eV] at current iteration:
 Root      1 :     3.515313131518239   Change is   -0.457927278811991
 Root      2 :     4.083056643229471   Change is   -0.238208333755839
 Root      3 :     4.232563749933091   Change is   -0.274681366248854
 Root      4 :     5.221406513930026   Change is   -0.319658448798654
 Root      5 :     5.717389704663985   Change is   -0.833689793596789
 Root      6 :     6.047720661559346   Change is   -0.130197746791175
 Iteration     3 Dimension    48 NMult    36 NNew     12
 CISAX will form    12 AO SS matrices at one time.
 NMat=    12 NSing=    12 JSym2X= 0.
 Root      1 not converged, maximum delta is    0.010053451069616
 Root      2 not converged, maximum delta is    0.013860221257930
 Root      3 not converged, maximum delta is    0.013810112222972
 Root      4 not converged, maximum delta is    0.025292770246932
 Root      5 not converged, maximum delta is    0.026216637021751
 Root      6 not converged, maximum delta is    0.019622340293671
 Excitation Energies [eV] at current iteration:
 Root      1 :     3.495311163807012   Change is   -0.020001967711227
 Root      2 :     4.069265555738466   Change is   -0.013791087491005
 Root      3 :     4.218020580675922   Change is   -0.014543169257169
 Root      4 :     5.199434398349973   Change is   -0.021972115580053
 Root      5 :     5.673865909351632   Change is   -0.043523795312353
 Root      6 :     6.036847040069714   Change is   -0.010873621489632
 Iteration     4 Dimension    60 NMult    48 NNew     12
 CISAX will form    12 AO SS matrices at one time.
 NMat=    12 NSing=    12 JSym2X= 0.
 Root      1 not converged, maximum delta is    0.002451344717143
 Root      2 not converged, maximum delta is    0.001882529324216
 Root      3 not converged, maximum delta is    0.002161800032849
 Root      4 not converged, maximum delta is    0.002438393668088
 Root      5 not converged, maximum delta is    0.004183086624910
 Root      6 not converged, maximum delta is    0.004037186953934
 Excitation Energies [eV] at current iteration:
 Root      1 :     3.493630952579038   Change is   -0.001680211227974
 Root      2 :     4.068504961489141   Change is   -0.000760594249325
 Root      3 :     4.217160485116607   Change is   -0.000860095559314
 Root      4 :     5.197494244875860   Change is   -0.001940153474113
 Root      5 :     5.669720016852605   Change is   -0.004145892499028
 Root      6 :     6.036029176940326   Change is   -0.000817863129387
 Iteration     5 Dimension    72 NMult    60 NNew     12
 CISAX will form    12 AO SS matrices at one time.
 NMat=    12 NSing=    12 JSym2X= 0.
 Root      1 not converged, maximum delta is    0.000716798383770
 Root      2 not converged, maximum delta is    0.000309173076056
 Root      3 not converged, maximum delta is    0.000560249448711
 Root      4 not converged, maximum delta is    0.000928179421840
 Root      5 not converged, maximum delta is    0.001032800805622
 Root      6 not converged, maximum delta is    0.001098195789461
 Excitation Energies [eV] at current iteration:
 Root      1 :     3.493526896724337   Change is   -0.000104055854701
 Root      2 :     4.068454106259614   Change is   -0.000050855229526
 Root      3 :     4.217107559638697   Change is   -0.000052925477911
 Root      4 :     5.197351691398507   Change is   -0.000142553477354
 Root      5 :     5.669371910466929   Change is   -0.000348106385676
 Root      6 :     6.035962732275622   Change is   -0.000066444664705
 Iteration     6 Dimension    84 NMult    72 NNew     12
 CISAX will form    12 AO SS matrices at one time.
 NMat=    12 NSing=    12 JSym2X= 0.
 Root      1 not converged, maximum delta is    0.000199115197605
 Root      2 not converged, maximum delta is    0.000084670422996
 Root      3 not converged, maximum delta is    0.000155028971878
 Root      4 not converged, maximum delta is    0.000508147331085
 Root      5 not converged, maximum delta is    0.000261141672601
 Root      6 not converged, maximum delta is    0.000182979789297
 Excitation Energies [eV] at current iteration:
 Root      1 :     3.493520661036631   Change is   -0.000006235687706
 Root      2 :     4.068450683500338   Change is   -0.000003422759276
 Root      3 :     4.217104366478747   Change is   -0.000003193159950
 Root      4 :     5.197338680676633   Change is   -0.000013010721874
 Root      5 :     5.669345481395979   Change is   -0.000026429070950
 Root      6 :     6.035957426755519   Change is   -0.000005305520102
 Iteration     7 Dimension    96 NMult    84 NNew     12
 CISAX will form    12 AO SS matrices at one time.
 NMat=    12 NSing=    12 JSym2X= 0.
 Root      1 not converged, maximum delta is    0.000019333349947
 Root      2 not converged, maximum delta is    0.000017951308899
 Root      3 not converged, maximum delta is    0.000035086723566
 Root      4 not converged, maximum delta is    0.000151474620262
 Root      5 not converged, maximum delta is    0.000104080722560
 Root      6 not converged, maximum delta is    0.000085656047077
 Excitation Energies [eV] at current iteration:
 Root      1 :     3.493520326964542   Change is   -0.000000334072089
 Root      2 :     4.068450504561572   Change is   -0.000000178938767
 Root      3 :     4.217104198473411   Change is   -0.000000168005336
 Root      4 :     5.197337384284698   Change is   -0.000001296391934
 Root      5 :     5.669343297601733   Change is   -0.000002183794245
 Root      6 :     6.035956941391493   Change is   -0.000000485364026
 Iteration     8 Dimension   108 NMult    96 NNew     12
 CISAX will form    12 AO SS matrices at one time.
 NMat=    12 NSing=    12 JSym2X= 0.
 Root      1 not converged, maximum delta is    0.000003881873856
 Root      2 not converged, maximum delta is    0.000003717895547
 Root      3 not converged, maximum delta is    0.000004066069160
 Root      4 not converged, maximum delta is    0.000023432943753
 Root      5 not converged, maximum delta is    0.000022710156635
 Root      6 not converged, maximum delta is    0.000019466773507
 Excitation Energies [eV] at current iteration:
 Root      1 :     3.493520315278647   Change is   -0.000000011685895
 Root      2 :     4.068450493717786   Change is   -0.000000010843786
 Root      3 :     4.217104189732474   Change is   -0.000000008740936
 Root      4 :     5.197337282252859   Change is   -0.000000102031839
 Root      5 :     5.669343146802372   Change is   -0.000000150799362
 Root      6 :     6.035956897778555   Change is   -0.000000043612938
 Iteration     9 Dimension   120 NMult   108 NNew     12
 CISAX will form    12 AO SS matrices at one time.
 NMat=    12 NSing=    12 JSym2X= 0.
 Root      1 has converged.
 Root      2 has converged.
 Root      3 has converged.
 Root      4 not converged, maximum delta is    0.000003867199306
 Root      5 not converged, maximum delta is    0.000005415631588
 Root      6 not converged, maximum delta is    0.000004548875975
 Excitation Energies [eV] at current iteration:
 Root      1 :     3.493520314820208   Change is   -0.000000000458439
 Root      2 :     4.068450493327182   Change is   -0.000000000390604
 Root      3 :     4.217104189429619   Change is   -0.000000000302856
 Root      4 :     5.197337277763279   Change is   -0.000000004489580
 Root      5 :     5.669343138418626   Change is   -0.000000008383746
 Root      6 :     6.035956895017939   Change is   -0.000000002760617
 Iteration    10 Dimension   126 NMult   120 NNew      6
 CISAX will form     6 AO SS matrices at one time.
 NMat=     6 NSing=     6 JSym2X= 0.
 Root      1 has converged.
 Root      2 has converged.
 Root      3 has converged.
 Root      4 has converged.
 Root      5 not converged, maximum delta is    0.000001533988821
 Root      6 not converged, maximum delta is    0.000001210201883
 Excitation Energies [eV] at current iteration:
 Root      1 :     3.493520314817643   Change is   -0.000000000002565
 Root      2 :     4.068450493324151   Change is   -0.000000000003031
 Root      3 :     4.217104189426752   Change is   -0.000000000002865
 Root      4 :     5.197337277546124   Change is   -0.000000000217155
 Root      5 :     5.669343137880938   Change is   -0.000000000537688
 Root      6 :     6.035956894840229   Change is   -0.000000000177709
 Iteration    11 Dimension   130 NMult   126 NNew      4
 CISAX will form     4 AO SS matrices at one time.
 NMat=     4 NSing=     4 JSym2X= 0.
 Root      1 has converged.
 Root      2 has converged.
 Root      3 has converged.
 Root      4 has converged.
 Root      5 has converged.
 Root      6 has converged.
 Excitation Energies [eV] at current iteration:
 Root      1 :     3.493520314817455   Change is   -0.000000000000188
 Root      2 :     4.068450493324070   Change is   -0.000000000000081
 Root      3 :     4.217104189426480   Change is   -0.000000000000273
 Root      4 :     5.197337277540209   Change is   -0.000000000005915
 Root      5 :     5.669343137843527   Change is   -0.000000000037411
 Root      6 :     6.035956894826241   Change is   -0.000000000013988
 Convergence achieved on expansion vectors.
 PCM Corrected Linear-Response:
 The state of interest is root number   1
 Excitation energy =    3.4935 eV, Total energy =  -633.200042588    
 Recompute the excitation energies using the linear response reaction field.
 Convergence on wavefunction:    0.000001000000000
 Davidson Disk Diagonalization:  ConvIn= 1.00D-06 SkipCon=T Conv= 1.00D-06.
 Max sub-space:  2000 roots to seek:     6 dimension of matrix:        23104
 Iteration     1 Dimension     6 NMult     0 NNew      6
 CISAX will form     6 AO SS matrices at one time.
 NMat=     6 NSing=     6 JSym2X= 0.
 Excitation Energies [eV] at current iteration:
 Root      1 :     3.589177331709402
 Root      2 :     4.096489975012247
 Root      3 :     4.244577783338431
 Root      4 :     5.273329870324416
 Root      5 :     5.835351051290655
 Root      6 :     6.014489502731993
 Iteration     2 Dimension    18 NMult     6 NNew     12
 CISAX will form    12 AO SS matrices at one time.
 NMat=    12 NSing=    12 JSym2X= 0.
 Root      1 not converged, maximum delta is    0.016972895866763
 Root      2 not converged, maximum delta is    0.023115580764984
 Root      3 not converged, maximum delta is    0.007829181063717
 Root      4 not converged, maximum delta is    0.212248077663816
 Root      5 not converged, maximum delta is    0.249372214597035
 Root      6 not converged, maximum delta is    0.093588558599500
 Excitation Energies [eV] at current iteration:
 Root      1 :     3.380106484061684   Change is   -0.209070847647719
 Root      2 :     4.063471823963029   Change is   -0.033018151049218
 Root      3 :     4.211822461364862   Change is   -0.032755321973568
 Root      4 :     5.072511491724077   Change is   -0.200818378600340
 Root      5 :     5.546571484757310   Change is   -0.288779566533345
 Root      6 :     5.993463079825644   Change is   -0.021026422906349
 Iteration     3 Dimension    30 NMult    18 NNew     12
 CISAX will form    12 AO SS matrices at one time.
 NMat=    12 NSing=    12 JSym2X= 0.
 Root      1 not converged, maximum delta is    0.002732185454765
 Root      2 not converged, maximum delta is    0.000865693178234
 Root      3 not converged, maximum delta is    0.000949340584894
 Root      4 not converged, maximum delta is    0.012124066429045
 Root      5 not converged, maximum delta is    0.010231927882246
 Root      6 not converged, maximum delta is    0.009505813445380
 Excitation Energies [eV] at current iteration:
 Root      1 :     3.377262873969018   Change is   -0.002843610092666
 Root      2 :     4.063180657268983   Change is   -0.000291166694046
 Root      3 :     4.211515445158975   Change is   -0.000307016205888
 Root      4 :     5.064386078807687   Change is   -0.008125412916390
 Root      5 :     5.538590083548919   Change is   -0.007981401208391
 Root      6 :     5.992044556524553   Change is   -0.001418523301090
 Iteration     4 Dimension    42 NMult    30 NNew     12
 CISAX will form    12 AO SS matrices at one time.
 NMat=    12 NSing=    12 JSym2X= 0.
 Root      1 not converged, maximum delta is    0.001487652514253
 Root      2 not converged, maximum delta is    0.000167616208577
 Root      3 not converged, maximum delta is    0.000153879193469
 Root      4 not converged, maximum delta is    0.001913854486031
 Root      5 not converged, maximum delta is    0.002576967761909
 Root      6 not converged, maximum delta is    0.010809757297763
 Excitation Energies [eV] at current iteration:
 Root      1 :     3.376876389421579   Change is   -0.000386484547439
 Root      2 :     4.063165320408181   Change is   -0.000015336860802
 Root      3 :     4.211498543947281   Change is   -0.000016901211695
 Root      4 :     5.063250856451254   Change is   -0.001135222356433
 Root      5 :     5.537574880496021   Change is   -0.001015203052898
 Root      6 :     5.991523731934451   Change is   -0.000520824590103
 Iteration     5 Dimension    54 NMult    42 NNew     12
 CISAX will form    12 AO SS matrices at one time.
 NMat=    12 NSing=    12 JSym2X= 0.
 Root      1 not converged, maximum delta is    0.000614213428295
 Root      2 not converged, maximum delta is    0.000080734944459
 Root      3 not converged, maximum delta is    0.000079216673934
 Root      4 not converged, maximum delta is    0.000736520515656
 Root      5 not converged, maximum delta is    0.000702517339847
 Root      6 not converged, maximum delta is    0.004648258681985
 Excitation Energies [eV] at current iteration:
 Root      1 :     3.376848633484112   Change is   -0.000027755937468
 Root      2 :     4.063164302808327   Change is   -0.000001017599855
 Root      3 :     4.211497222834319   Change is   -0.000001321112961
 Root      4 :     5.063147576487310   Change is   -0.000103279963943
 Root      5 :     5.537462438925044   Change is   -0.000112441570977
 Root      6 :     5.991406824752141   Change is   -0.000116907182310
 Iteration     6 Dimension    66 NMult    54 NNew     12
 CISAX will form    12 AO SS matrices at one time.
 NMat=    12 NSing=    12 JSym2X= 0.
 Root      1 not converged, maximum delta is    0.000079426843004
 Root      2 not converged, maximum delta is    0.000024533431235
 Root      3 not converged, maximum delta is    0.000025259197982
 Root      4 not converged, maximum delta is    0.000280654577056
 Root      5 not converged, maximum delta is    0.000397543098578
 Root      6 not converged, maximum delta is    0.000914334170612
 Excitation Energies [eV] at current iteration:
 Root      1 :     3.376846719483097   Change is   -0.000001914001015
 Root      2 :     4.063164191943237   Change is   -0.000000110865090
 Root      3 :     4.211497105822935   Change is   -0.000000117011385
 Root      4 :     5.063137538520307   Change is   -0.000010037967004
 Root      5 :     5.537448199615914   Change is   -0.000014239309130
 Root      6 :     5.991392166643104   Change is   -0.000014658109036
 Iteration     7 Dimension    78 NMult    66 NNew     12
 CISAX will form    12 AO SS matrices at one time.
 NMat=    12 NSing=    12 JSym2X= 0.
 Root      1 not converged, maximum delta is    0.000009501307380
 Root      2 not converged, maximum delta is    0.000004361881777
 Root      3 not converged, maximum delta is    0.000006699466974
 Root      4 not converged, maximum delta is    0.000104794890456
 Root      5 not converged, maximum delta is    0.000145403045716
 Root      6 not converged, maximum delta is    0.000111843295376
 Excitation Energies [eV] at current iteration:
 Root      1 :     3.376846647444766   Change is   -0.000000072038331
 Root      2 :     4.063164187084935   Change is   -0.000000004858302
 Root      3 :     4.211497098856928   Change is   -0.000000006966007
 Root      4 :     5.063136501740275   Change is   -0.000001036780032
 Root      5 :     5.537446589158453   Change is   -0.000001610457461
 Root      6 :     5.991390692497219   Change is   -0.000001474145886
 Iteration     8 Dimension    90 NMult    78 NNew     12
 CISAX will form    12 AO SS matrices at one time.
 NMat=    12 NSing=    12 JSym2X= 0.
 Root      1 not converged, maximum delta is    0.000002523640182
 Root      2 not converged, maximum delta is    0.000001422070540
 Root      3 not converged, maximum delta is    0.000001052310993
 Root      4 not converged, maximum delta is    0.000027106178686
 Root      5 not converged, maximum delta is    0.000046007366236
 Root      6 not converged, maximum delta is    0.000037642804973
 Excitation Energies [eV] at current iteration:
 Root      1 :     3.376846644198943   Change is   -0.000000003245823
 Root      2 :     4.063164186843319   Change is   -0.000000000241615
 Root      3 :     4.211497098447676   Change is   -0.000000000409252
 Root      4 :     5.063136426476460   Change is   -0.000000075263815
 Root      5 :     5.537446431416094   Change is   -0.000000157742359
 Root      6 :     5.991390539566289   Change is   -0.000000152930930
 Iteration     9 Dimension   102 NMult    90 NNew     12
 CISAX will form    12 AO SS matrices at one time.
 NMat=    12 NSing=    12 JSym2X= 0.
 Root      1 has converged.
 Root      2 has converged.
 Root      3 has converged.
 Root      4 not converged, maximum delta is    0.000005759370287
 Root      5 not converged, maximum delta is    0.000011859874192
 Root      6 not converged, maximum delta is    0.000020509907181
 Excitation Energies [eV] at current iteration:
 Root      1 :     3.376846644085790   Change is   -0.000000000113153
 Root      2 :     4.063164186831787   Change is   -0.000000000011532
 Root      3 :     4.211497098425502   Change is   -0.000000000022175
 Root      4 :     5.063136421356400   Change is   -0.000000005120061
 Root      5 :     5.537446418371317   Change is   -0.000000013044778
 Root      6 :     5.991390522048886   Change is   -0.000000017517402
 Iteration    10 Dimension   108 NMult   102 NNew      6
 CISAX will form     6 AO SS matrices at one time.
 NMat=     6 NSing=     6 JSym2X= 0.
 Root      1 has converged.
 Root      2 has converged.
 Root      3 has converged.
 Root      4 not converged, maximum delta is    0.000001325238125
 Root      5 not converged, maximum delta is    0.000002852671692
 Root      6 not converged, maximum delta is    0.000007189393678
 Excitation Energies [eV] at current iteration:
 Root      1 :     3.376846644085182   Change is   -0.000000000000609
 Root      2 :     4.063164186831665   Change is   -0.000000000000122
 Root      3 :     4.211497098425248   Change is   -0.000000000000254
 Root      4 :     5.063136421088319   Change is   -0.000000000268081
 Root      5 :     5.537446417500510   Change is   -0.000000000870807
 Root      6 :     5.991390520164494   Change is   -0.000000001884393
 Iteration    11 Dimension   114 NMult   108 NNew      6
 CISAX will form     6 AO SS matrices at one time.
 NMat=     6 NSing=     6 JSym2X= 0.
 Root      1 has converged.
 Root      2 has converged.
 Root      3 has converged.
 Root      4 has converged.
 Root      5 has converged.
 Root      6 not converged, maximum delta is    0.000001677849622
 Excitation Energies [eV] at current iteration:
 Root      1 :     3.376846644084962   Change is   -0.000000000000219
 Root      2 :     4.063164186831624   Change is   -0.000000000000041
 Root      3 :     4.211497098425073   Change is   -0.000000000000175
 Root      4 :     5.063136421072423   Change is   -0.000000000015895
 Root      5 :     5.537446417438232   Change is   -0.000000000062278
 Root      6 :     5.991390519988097   Change is   -0.000000000176397
 Iteration    12 Dimension   116 NMult   114 NNew      2
 CISAX will form     2 AO SS matrices at one time.
 NMat=     2 NSing=     2 JSym2X= 0.
 Root      1 has converged.
 Root      2 has converged.
 Root      3 has converged.
 Root      4 has converged.
 Root      5 has converged.
 Root      6 has converged.
 Excitation Energies [eV] at current iteration:
 Root      1 :     3.376846644084962   Change is    0.000000000000000
 Root      2 :     4.063164186831564   Change is   -0.000000000000060
 Root      3 :     4.211497098425073   Change is    0.000000000000000
 Root      4 :     5.063136421072391   Change is   -0.000000000000032
 Root      5 :     5.537446417438128   Change is   -0.000000000000104
 Root      6 :     5.991390519972496   Change is   -0.000000000015601
 Convergence achieved on expansion vectors.
 ***********************************************************************
 Excited states from <AA,BB:AA,BB> singles matrix:
 ***********************************************************************
 
 1PDM for each excited state written to RWF  633
 Ground to excited state transition densities written to RWF  633
 Ground to excited state transition electric dipole moments (Au):
       state          X           Y           Z        Dip. S.      Osc.
         1        -1.6134      0.1958      0.0504      2.6440      0.2187
         2        -0.1381     -0.0134      0.0443      0.0212      0.0021
         3        -0.0140      0.1444     -0.0350      0.0223      0.0023
         4        -0.1968     -1.7598      0.1253      3.1512      0.3909
         5        -0.0591     -1.4808      0.0241      2.1969      0.2980
         6         0.0290      0.2377      0.0678      0.0620      0.0091
 Ground to excited state transition velocity dipole moments (Au):
       state          X           Y           Z        Dip. S.      Osc.
         1         0.1921     -0.0196     -0.0070      0.0373      0.2006
         2         0.0198      0.0023     -0.0038      0.0004      0.0018
         3         0.0022     -0.0208      0.0019      0.0004      0.0019
         4         0.0391      0.3138     -0.0187      0.1004      0.3596
         5         0.0124      0.2958     -0.0058      0.0877      0.2874
         6        -0.0070     -0.0489     -0.0343      0.0036      0.0109
 Ground to excited state transition magnetic dipole moments (Au):
       state          X           Y           Z
         1        -0.0760      0.0182     -1.4432
         2         0.8066     -0.1355     -0.3261
         3         0.1669     -0.9983     -0.1895
         4         0.0619     -0.1049      0.0819
         5         0.1926     -0.1064      0.2888
         6        -0.0297     -0.0113      0.0161
 Ground to excited state transition velocity quadrupole moments (Au):
       state          XX          YY          ZZ          XY          XZ          YZ
         1        -0.1731      0.1002      0.0019     -0.5408      0.0578      0.0132
         2         0.0044     -0.0063      0.0003     -0.0541      0.0173      0.0856
         3         0.0075     -0.0075      0.0277     -0.0534      0.0653      0.0089
         4        -1.2907      0.3061     -0.0036      0.0858      0.0890     -0.0542
         5        -0.5153      0.2679      0.0508      0.2268      0.0698      0.0347
         6        -0.2306     -0.2075      0.1815      0.0151      0.0342      0.0463
 <0|del|b> * <b|rxdel|0> + <0|del|b> * <b|delr+rdel|0>
 Rotatory Strengths (R) in cgs (10**-40 erg-esu-cm/Gauss)
       state          XX          YY          ZZ    R(velocity)    E-M Angle
         1        41.8819    -16.3231    -53.0940     -9.1784       90.99
         2         2.5770     44.2604     33.1566     26.6647       18.98
         3        49.5005      0.2878     45.1502     31.6461       16.21
         4      -121.6357      0.7077     -0.8689    -40.5990      133.56
         5       -95.7949      4.2630    -15.4071    -35.6464      106.63
         6         1.8512     -0.2411     -0.9422      0.2226       84.42
 1/2[<0|r|b>*<b|rxdel|0> + (<0|rxdel|b>*<b|r|0>)*]
 Rotatory Strengths (R) in cgs (10**-40 erg-esu-cm/Gauss)
       state          XX          YY          ZZ     R(length)
         1       -86.7207     -2.5149     51.4040    -12.6105
         2        78.7938     -1.2844     10.2140     29.2411
         3         1.6518    101.9369     -4.6860     32.9676
         4         8.6131   -130.5873     -7.2547    -43.0763
         5         8.0447   -111.4088     -4.9241    -36.0961
         6         0.6089      1.8922     -0.7713      0.5766
  1/2[<0|del|b>*<b|r|0> + (<0|r|b>*<b|del|0>)*] (Au)
       state          X           Y           Z        Dip. S.   Osc.(frdel)
         1        -0.3100     -0.0038     -0.0004      0.3142      0.2095
         2        -0.0027     -0.0000     -0.0002      0.0029      0.0020
         3        -0.0000     -0.0030     -0.0001      0.0031      0.0021
         4        -0.0077     -0.5523     -0.0023      0.5623      0.3749
         5        -0.0007     -0.4381     -0.0001      0.4390      0.2926
         6        -0.0002     -0.0116     -0.0023      0.0142      0.0094

 Excitation energies and oscillator strengths:
 
 Excited State   1:      Singlet-A      3.3768 eV  367.16 nm  f=0.2187  <S**2>=0.000
      52 -> 53         0.69910
 This state for optimization and/or second-order correction.
 Total Energy, E(TD-HF/TD-DFT) =  -633.204330267    
 Copying the excited state density for this state as the 1-particle RhoCI density.
 
 Excited State   2:      Singlet-A      4.0632 eV  305.14 nm  f=0.0021  <S**2>=0.000
      50 -> 54         0.19066
      51 -> 53         0.56550
      51 -> 54         0.32914
 
 Excited State   3:      Singlet-A      4.2115 eV  294.39 nm  f=0.0023  <S**2>=0.000
      49 -> 53         0.20770
      49 -> 54        -0.14153
      50 -> 53         0.53816
      50 -> 54        -0.26167
      50 -> 58         0.11310
      51 -> 54         0.20850
 
 Excited State   4:      Singlet-A      5.0631 eV  244.88 nm  f=0.3909  <S**2>=0.000
      52 -> 54         0.69312
 
 Excited State   5:      Singlet-A      5.5374 eV  223.90 nm  f=0.2980  <S**2>=0.000
      49 -> 53         0.62848
      50 -> 53        -0.24367
      51 -> 53         0.13268
 
 Excited State   6:      Singlet-A      5.9914 eV  206.94 nm  f=0.0091  <S**2>=0.000
      52 -> 55         0.65849
      52 -> 56         0.14918
 SavETr:  write IOETrn=   770 NScale= 10 NData=  16 NLR=1 NState=    6 LETran=     118.
 The selected state is a singlet.
 CISGrd: IGrad=1 NXY=2 DFT=T
 CISAX will form     1 AO SS matrices at one time.
 NMat=     1 NSing=     1 JSym2X= 0.
 Leave Link  914 at Fri Jan 23 21:24:08 2026, MaxMem=  2147483648 cpu:            7770.4 elap:             487.3
 (Enter /data/home/wyx/g16/l1002.exe)
 Minotr:  Closed shell wavefunction.
          Computing CIS/TDA/TD derivatives.
          Using Z-Vector for PSCF gradient.
          Skipping F1 and S1 gradient terms here.
 NEqPCM:  Using equilibrium solvation (IEInf=0, Eps=   7.4257, EpsInf=   1.9740)
          Frozen-core window.
          Direct CPHF calculation.
          Differentiating once with respect to electric field.
                with respect to dipole field.
          Electric field/nuclear overlap derivatives assumed to be zero.
          Requested convergence is 1.0D-10 RMS, and 1.0D-09 maximum.
          NewPWx=F KeepS1=T KeepF1=T KeepIn=T MapXYZ=F SortEE=F KeepMc=T.
 Two-electron integral symmetry used by symmetrizing perturbed Fock matrices.
          MDV=    2147483648 using IRadAn=       5.
          Solving linear equations separately, MaxMat=     384.
          There are     1 degrees of freedom in the 1st order CPHF.  IDoFFX=0 NUNeed=     1.
 FoFJK:  IHMeth= 1 ICntrl=       0 DoSepK=T KAlg= 0 I1Cent=           0 FoldK=F
 IRaf=         1 NMat=       1 IRICut=       1 DoRegI=T DoRafI=F ISym2E=-1 IDoP0=0 IntGTp=1.
 FoFCou: FMM=F IPFlag=           0 FMFlag=      100000 FMFlg1=           0
         NFxFlg=           0 DoJE=T BraDBF=F KetDBF=F FulRan=T
         wScrn=  0.000000 ICntrl=       500 IOpCl=  0 I1Cent=           0 NGrid=           0
         NMat0=    1 NMatS0=      1 NMatT0=    0 NMatD0=    1 NMtDS0=    0 NMtDT0=    0
 Petite list used in FoFCou.
 LinEq1:  Iter=  0 NonCon=     1 RMS=3.57D-03 Max=1.68D-01 NDo=     1
 AX will form     1 AO Fock derivatives at one time.
 LinEq1:  Iter=  1 NonCon=     1 RMS=1.45D-03 Max=8.12D-02 NDo=     1
 LinEq1:  Iter=  2 NonCon=     1 RMS=7.17D-04 Max=3.59D-02 NDo=     1
 LinEq1:  Iter=  3 NonCon=     1 RMS=3.87D-04 Max=1.82D-02 NDo=     1
 LinEq1:  Iter=  4 NonCon=     1 RMS=1.76D-04 Max=6.87D-03 NDo=     1
 LinEq1:  Iter=  5 NonCon=     1 RMS=8.77D-05 Max=3.25D-03 NDo=     1
 LinEq1:  Iter=  6 NonCon=     1 RMS=5.58D-05 Max=2.38D-03 NDo=     1
 LinEq1:  Iter=  7 NonCon=     1 RMS=2.48D-05 Max=1.42D-03 NDo=     1
 LinEq1:  Iter=  8 NonCon=     1 RMS=1.13D-05 Max=4.12D-04 NDo=     1
 LinEq1:  Iter=  9 NonCon=     1 RMS=5.52D-06 Max=1.99D-04 NDo=     1
 LinEq1:  Iter= 10 NonCon=     1 RMS=2.88D-06 Max=7.83D-05 NDo=     1
 LinEq1:  Iter= 11 NonCon=     1 RMS=1.83D-06 Max=5.49D-05 NDo=     1
 LinEq1:  Iter= 12 NonCon=     1 RMS=8.20D-07 Max=1.47D-05 NDo=     1
 LinEq1:  Iter= 13 NonCon=     1 RMS=3.03D-07 Max=6.34D-06 NDo=     1
 LinEq1:  Iter= 14 NonCon=     1 RMS=1.28D-07 Max=3.25D-06 NDo=     1
 LinEq1:  Iter= 15 NonCon=     1 RMS=7.12D-08 Max=2.00D-06 NDo=     1
 LinEq1:  Iter= 16 NonCon=     1 RMS=2.38D-08 Max=8.40D-07 NDo=     1
 LinEq1:  Iter= 17 NonCon=     1 RMS=7.69D-09 Max=3.15D-07 NDo=     1
 LinEq1:  Iter= 18 NonCon=     1 RMS=3.96D-09 Max=1.07D-07 NDo=     1
 LinEq1:  Iter= 19 NonCon=     1 RMS=1.63D-09 Max=4.97D-08 NDo=     1
 LinEq1:  Iter= 20 NonCon=     1 RMS=4.97D-10 Max=9.56D-09 NDo=     1
 LinEq1:  Iter= 21 NonCon=     1 RMS=2.16D-10 Max=4.06D-09 NDo=     1
 LinEq1:  Iter= 22 NonCon=     1 RMS=7.76D-11 Max=1.93D-09 NDo=     1
 LinEq1:  Iter= 23 NonCon=     0 RMS=1.87D-11 Max=4.85D-10 NDo=     1
 Linear equations converged to 1.000D-10 1.000D-09 after    23 iterations.
 PCM Corrected Linear-Response - Equilibrium solvation:
 Corrected transition energy               =    3.4732          eV
 Total energy after correction             = -633.200788747     a.u.
 NEqPCM:  Using non-equilibrium solvation (IEInf=1, Eps=   7.4257, EpsInf=   1.9740)
 Inv3:  Mode=1 IEnd=    13192227.
 Iteration    1 A*A^-1 deviation from unit magnitude is 3.22D-15 for   1085.
 Iteration    1 A*A^-1 deviation from orthogonality  is 1.83D-15 for   2000    597.
 Iteration    1 A^-1*A deviation from unit magnitude is 3.77D-15 for    197.
 Iteration    1 A^-1*A deviation from orthogonality  is 1.63D-15 for   1623   1336.
 NEqSol: Computing the dynamic-inertial partition of the PCM polarization charges.
 End of Minotr F.D. properties file   721 does not exist.
 End of Minotr F.D. properties file   722 does not exist.
 End of Minotr F.D. properties file   788 does not exist.
 Leave Link 1002 at Fri Jan 23 21:26:14 2026, MaxMem=  2147483648 cpu:            1897.9 elap:             125.5
 (Enter /data/home/wyx/g16/l601.exe)
 Copying SCF densities to generalized density rwf, IOpCl= 0 IROHF=0.

 **********************************************************************

            Population analysis using the CI density.

 **********************************************************************

 Orbital symmetries:
       Occupied  (A) (A) (A) (A) (A) (A) (A) (A) (A) (A) (A) (A)
                 (A) (A) (A) (A) (A) (A) (A) (A) (A) (A) (A) (A)
                 (A) (A) (A) (A) (A) (A) (A) (A) (A) (A) (A) (A)
                 (A) (A) (A) (A) (A) (A) (A) (A) (A) (A) (A) (A)
                 (A) (A) (A) (A)
       Virtual   (A) (A) (A) (A) (A) (A) (A) (A) (A) (A) (A) (A)
                 (A) (A) (A) (A) (A) (A) (A) (A) (A) (A) (A) (A)
                 (A) (A) (A) (A) (A) (A) (A) (A) (A) (A) (A) (A)
                 (A) (A) (A) (A) (A) (A) (A) (A) (A) (A) (A) (A)
                 (A) (A) (A) (A) (A) (A) (A) (A) (A) (A) (A) (A)
                 (A) (A) (A) (A) (A) (A) (A) (A) (A) (A) (A) (A)
                 (A) (A) (A) (A) (A) (A) (A) (A) (A) (A) (A) (A)
                 (A) (A) (A) (A) (A) (A) (A) (A) (A) (A) (A) (A)
                 (A) (A) (A) (A) (A) (A) (A) (A) (A) (A) (A) (A)
                 (A) (A) (A) (A) (A) (A) (A) (A) (A) (A) (A) (A)
                 (A) (A) (A) (A) (A) (A) (A) (A) (A) (A) (A) (A)
                 (A) (A) (A) (A) (A) (A) (A) (A) (A) (A) (A) (A)
                 (A) (A) (A) (A) (A) (A) (A) (A) (A) (A) (A) (A)
                 (A) (A) (A) (A) (A) (A) (A) (A) (A) (A) (A) (A)
                 (A) (A) (A) (A) (A) (A) (A) (A) (A) (A) (A) (A)
                 (A) (A) (A) (A) (A) (A) (A) (A) (A) (A) (A) (A)
                 (A) (A) (A) (A) (A) (A) (A) (A) (A) (A) (A) (A)
                 (A) (A) (A) (A) (A) (A) (A) (A) (A) (A) (A) (A)
                 (A) (A) (A) (A) (A) (A) (A) (A) (A) (A) (A) (A)
                 (A) (A) (A) (A) (A) (A) (A) (A) (A) (A) (A) (A)
                 (A) (A) (A) (A) (A) (A) (A) (A) (A) (A) (A) (A)
                 (A) (A) (A) (A) (A) (A) (A) (A) (A) (A) (A) (A)
                 (A) (A) (A) (A) (A) (A) (A) (A) (A) (A) (A) (A)
                 (A) (A) (A) (A) (A) (A) (A) (A) (A) (A) (A) (A)
                 (A) (A) (A) (A) (A) (A) (A) (A) (A) (A) (A) (A)
                 (A) (A) (A) (A)
 The electronic state is 1-A.
 Alpha  occ. eigenvalues --  -19.17857 -19.17256 -14.44212 -10.33423 -10.32958
 Alpha  occ. eigenvalues --  -10.32141 -10.31553 -10.25968 -10.25113 -10.24823
 Alpha  occ. eigenvalues --  -10.24720 -10.24508 -10.24265 -10.23647  -1.11943
 Alpha  occ. eigenvalues --   -1.11466  -1.07679  -0.91292  -0.90300  -0.83865
 Alpha  occ. eigenvalues --   -0.82574  -0.81632  -0.78527  -0.73994  -0.71330
 Alpha  occ. eigenvalues --   -0.68600  -0.61585  -0.58239  -0.56823  -0.55183
 Alpha  occ. eigenvalues --   -0.54582  -0.53998  -0.52594  -0.51908  -0.50799
 Alpha  occ. eigenvalues --   -0.49951  -0.49526  -0.49171  -0.48630  -0.48138
 Alpha  occ. eigenvalues --   -0.46929  -0.45317  -0.45139  -0.43530  -0.43099
 Alpha  occ. eigenvalues --   -0.42359  -0.42113  -0.41929  -0.32781  -0.32206
 Alpha  occ. eigenvalues --   -0.31196  -0.25980
 Alpha virt. eigenvalues --   -0.02394   0.02533   0.06292   0.08075   0.08502
 Alpha virt. eigenvalues --    0.10010   0.10732   0.11902   0.12605   0.13516
 Alpha virt. eigenvalues --    0.14151   0.14865   0.15623   0.16136   0.16910
 Alpha virt. eigenvalues --    0.17525   0.17843   0.17949   0.18148   0.19192
 Alpha virt. eigenvalues --    0.19917   0.22087   0.22739   0.23425   0.23689
 Alpha virt. eigenvalues --    0.23930   0.24833   0.25587   0.26008   0.26471
 Alpha virt. eigenvalues --    0.26914   0.27427   0.28872   0.29021   0.30126
 Alpha virt. eigenvalues --    0.31657   0.31959   0.32640   0.33581   0.34353
 Alpha virt. eigenvalues --    0.35289   0.35942   0.36718   0.38092   0.38823
 Alpha virt. eigenvalues --    0.40024   0.40945   0.41655   0.42165   0.42667
 Alpha virt. eigenvalues --    0.43993   0.44334   0.45480   0.46056   0.46245
 Alpha virt. eigenvalues --    0.47258   0.47688   0.48060   0.48260   0.49031
 Alpha virt. eigenvalues --    0.49459   0.50441   0.50762   0.51367   0.51664
 Alpha virt. eigenvalues --    0.52828   0.53141   0.53393   0.54197   0.54319
 Alpha virt. eigenvalues --    0.54535   0.55872   0.56178   0.56588   0.58231
 Alpha virt. eigenvalues --    0.58733   0.59003   0.60738   0.61099   0.62597
 Alpha virt. eigenvalues --    0.63329   0.65711   0.66092   0.66444   0.67962
 Alpha virt. eigenvalues --    0.68619   0.70142   0.71158   0.72248   0.73019
 Alpha virt. eigenvalues --    0.73303   0.73849   0.74826   0.76028   0.77783
 Alpha virt. eigenvalues --    0.78260   0.79813   0.82157   0.84604   0.84928
 Alpha virt. eigenvalues --    0.89564   0.93454   0.99760   1.01105   1.24278
 Alpha virt. eigenvalues --    1.25582   1.27122   1.27689   1.29393   1.31500
 Alpha virt. eigenvalues --    1.32504   1.33054   1.34061   1.34966   1.35995
 Alpha virt. eigenvalues --    1.36504   1.37249   1.38227   1.39177   1.39903
 Alpha virt. eigenvalues --    1.40035   1.40270   1.41043   1.41557   1.41749
 Alpha virt. eigenvalues --    1.43298   1.44127   1.44539   1.45133   1.47055
 Alpha virt. eigenvalues --    1.48100   1.49115   1.49650   1.50435   1.51120
 Alpha virt. eigenvalues --    1.52102   1.52388   1.53662   1.54542   1.57754
 Alpha virt. eigenvalues --    1.58284   1.60582   1.60715   1.61335   1.62253
 Alpha virt. eigenvalues --    1.62671   1.63389   1.64173   1.65101   1.65665
 Alpha virt. eigenvalues --    1.66980   1.67348   1.67715   1.68236   1.68584
 Alpha virt. eigenvalues --    1.68737   1.69878   1.70466   1.71982   1.72289
 Alpha virt. eigenvalues --    1.73436   1.75186   1.76094   1.76660   1.78823
 Alpha virt. eigenvalues --    1.80128   1.83098   1.84308   1.86066   1.86540
 Alpha virt. eigenvalues --    1.86911   1.87434   1.88549   1.88984   1.90772
 Alpha virt. eigenvalues --    1.91317   1.94504   1.95175   1.98359   1.99699
 Alpha virt. eigenvalues --    2.00954   2.03815   2.04652   2.06483   2.09479
 Alpha virt. eigenvalues --    2.11201   2.12862   2.14568   2.16863   2.19511
 Alpha virt. eigenvalues --    2.20255   2.21300   2.21855   2.22764   2.26012
 Alpha virt. eigenvalues --    2.27043   2.27453   2.29090   2.30753   2.31588
 Alpha virt. eigenvalues --    2.33264   2.34583   2.36417   2.36982   2.38055
 Alpha virt. eigenvalues --    2.39485   2.40195   2.41611   2.43645   2.44829
 Alpha virt. eigenvalues --    2.45953   2.47788   2.50233   2.50515   2.51769
 Alpha virt. eigenvalues --    2.52574   2.53671   2.54953   2.56782   2.58616
 Alpha virt. eigenvalues --    2.58997   2.60160   2.61136   2.61954   2.62711
 Alpha virt. eigenvalues --    2.64466   2.65711   2.66941   2.67536   2.69035
 Alpha virt. eigenvalues --    2.71048   2.72036   2.72791   2.73684   2.75015
 Alpha virt. eigenvalues --    2.76099   2.76480   2.77404   2.78038   2.79471
 Alpha virt. eigenvalues --    2.80703   2.81538   2.83311   2.83496   2.84558
 Alpha virt. eigenvalues --    2.85573   2.86184   2.87895   2.90250   2.91788
 Alpha virt. eigenvalues --    2.97783   3.00067   3.00880   3.04184   3.10415
 Alpha virt. eigenvalues --    3.12280   3.15788   3.16745   3.17008   3.20492
 Alpha virt. eigenvalues --    3.21250   3.22325   3.24951   3.26421   3.27105
 Alpha virt. eigenvalues --    3.27658   3.29686   3.33416   3.34736   3.36642
 Alpha virt. eigenvalues --    3.37120   3.38772   3.39873   3.40305   3.41665
 Alpha virt. eigenvalues --    3.42568   3.44761   3.45511   3.46794   3.48011
 Alpha virt. eigenvalues --    3.48869   3.49464   3.55175   3.58326   3.59781
 Alpha virt. eigenvalues --    3.60499   3.90097   3.99657   4.34332   4.36367
 Alpha virt. eigenvalues --   21.64035  21.79621  22.08365  22.11006  22.11778
 Alpha virt. eigenvalues --   22.14710  22.15295  22.18402  22.20868  22.24805
 Alpha virt. eigenvalues --   22.30096  31.92893  43.63125  43.65649
          Condensed to atoms (all electrons):
               1          2          3          4          5          6
     1  O    7.995292  -0.000000  -0.000284   0.000020   0.021621   0.024693
     2  O   -0.000000   8.002398   0.000240   0.000038  -0.208964   0.000837
     3  N   -0.000284   0.000240   6.209694   0.367798  -0.088440   0.349551
     4  H    0.000020   0.000038   0.367798   0.401224   0.016732  -0.043862
     5  C    0.021621  -0.208964  -0.088440   0.016732   7.219705   0.012521
     6  C    0.024693   0.000837   0.349551  -0.043862   0.012521   6.045484
     7  C   -0.000659  -0.025103   0.412504  -0.038674   0.094306  -0.206330
     8  C   -0.000115   0.690506   0.004472  -0.000433  -0.260886   0.029135
     9  C   -0.029236   0.018865   0.003357  -0.001118  -0.509244  -0.184030
    10  H    0.017363  -0.000179  -0.001294   0.000024  -0.084708   0.018637
    11  H    0.002167   0.000052   0.001138   0.000045  -0.017639  -0.008774
    12  C   -0.242256  -0.001805  -0.050223   0.014565   0.035848  -0.404294
    13  C    0.692399  -0.000016  -0.000086   0.000624   0.085915   0.152677
    14  C   -0.000005  -0.011406  -0.040461  -0.009781  -0.085692   0.013752
    15  H   -0.000000   0.004519   0.003449   0.001777   0.021706   0.006450
    16  H   -0.000000  -0.000946   0.000655   0.000758   0.000662  -0.000710
    17  H    0.000000  -0.000157  -0.002329   0.000915  -0.010763  -0.001168
    18  C   -0.000006  -0.106107  -0.000636   0.000022  -0.294604  -0.000385
    19  H   -0.000000   0.010108   0.000004  -0.000001   0.026237   0.000026
    20  H    0.000119   0.003615   0.000106   0.000001   0.042599  -0.001073
    21  H   -0.000133   0.002310   0.000009  -0.000001   0.006435   0.000257
    22  C   -0.111044   0.000000   0.000319   0.000131   0.005141  -0.004872
    23  H    0.002093   0.000000   0.000046  -0.000015  -0.000108   0.015893
    24  H    0.005019  -0.000000  -0.000135  -0.000058  -0.000741  -0.034273
    25  H    0.009940  -0.000000   0.000008  -0.000003  -0.000143  -0.001992
    26  C    0.000792   0.000002  -0.038140  -0.006964  -0.001332   0.174453
    27  H   -0.000067   0.000000  -0.002446   0.000528   0.000724  -0.052203
    28  H   -0.000377  -0.000000   0.002254   0.000794  -0.000271  -0.058972
    29  H    0.000017   0.000000   0.001906   0.001378  -0.000650  -0.057436
               7          8          9         10         11         12
     1  O   -0.000659  -0.000115  -0.029236   0.017363   0.002167  -0.242256
     2  O   -0.025103   0.690506   0.018865  -0.000179   0.000052  -0.001805
     3  N    0.412504   0.004472   0.003357  -0.001294   0.001138  -0.050223
     4  H   -0.038674  -0.000433  -0.001118   0.000024   0.000045   0.014565
     5  C    0.094306  -0.260886  -0.509244  -0.084708  -0.017639   0.035848
     6  C   -0.206330   0.029135  -0.184030   0.018637  -0.008774  -0.404294
     7  C    5.886898  -0.230398  -0.185153   0.015640  -0.004649   0.025746
     8  C   -0.230398   5.448764   0.124312  -0.006936  -0.000182  -0.037283
     9  C   -0.185153   0.124312   6.523833   0.498748   0.343208  -0.016072
    10  H    0.015640  -0.006936   0.498748   0.457446  -0.021950  -0.107130
    11  H   -0.004649  -0.000182   0.343208  -0.021950   0.484166   0.011488
    12  C    0.025746  -0.037283  -0.016072  -0.107130   0.011488   7.545739
    13  C    0.010608  -0.006313  -0.269797   0.007731  -0.001512  -0.403360
    14  C    0.270600  -0.035071   0.010473   0.000333  -0.000692  -0.003861
    15  H   -0.079315   0.006720  -0.000077   0.000000   0.000038  -0.001503
    16  H   -0.036091  -0.007029  -0.000872  -0.000054   0.000149   0.000163
    17  H   -0.037385  -0.000472   0.001320   0.000064  -0.000050   0.000154
    18  C    0.007686   0.297566  -0.005839   0.005136  -0.007407  -0.006709
    19  H    0.001497  -0.050283  -0.001557   0.000593  -0.000076  -0.000510
    20  H    0.002068  -0.064727  -0.007592  -0.003856  -0.000343   0.006997
    21  H   -0.000644  -0.037758  -0.009898  -0.002533   0.001014  -0.000897
    22  C   -0.000456  -0.000023  -0.002201   0.001610   0.001186  -0.287357
    23  H   -0.000019   0.000004  -0.003616  -0.000117   0.000063  -0.012656
    24  H    0.000075  -0.000011   0.003768  -0.000155  -0.000117   0.073467
    25  H    0.000033   0.000005   0.001693  -0.000141  -0.000018   0.025219
    26  C    0.005806   0.000323   0.021453  -0.000048  -0.000476  -0.073916
    27  H    0.000081  -0.000035  -0.001879   0.000016  -0.000022  -0.016959
    28  H   -0.000467   0.000003   0.001503   0.000011   0.000005   0.000490
    29  H    0.003902   0.000012  -0.000695   0.000000   0.000049   0.024008
              13         14         15         16         17         18
     1  O    0.692399  -0.000005  -0.000000  -0.000000   0.000000  -0.000006
     2  O   -0.000016  -0.011406   0.004519  -0.000946  -0.000157  -0.106107
     3  N   -0.000086  -0.040461   0.003449   0.000655  -0.002329  -0.000636
     4  H    0.000624  -0.009781   0.001777   0.000758   0.000915   0.000022
     5  C    0.085915  -0.085692   0.021706   0.000662  -0.010763  -0.294604
     6  C    0.152677   0.013752   0.006450  -0.000710  -0.001168  -0.000385
     7  C    0.010608   0.270600  -0.079315  -0.036091  -0.037385   0.007686
     8  C   -0.006313  -0.035071   0.006720  -0.007029  -0.000472   0.297566
     9  C   -0.269797   0.010473  -0.000077  -0.000872   0.001320  -0.005839
    10  H    0.007731   0.000333   0.000000  -0.000054   0.000064   0.005136
    11  H   -0.001512  -0.000692   0.000038   0.000149  -0.000050  -0.007407
    12  C   -0.403360  -0.003861  -0.001503   0.000163   0.000154  -0.006709
    13  C    5.518667  -0.000104  -0.000021   0.000007  -0.000046   0.000682
    14  C   -0.000104   5.045929   0.381368   0.424035   0.421775   0.001858
    15  H   -0.000021   0.381368   0.590200  -0.027692  -0.027313   0.000350
    16  H    0.000007   0.424035  -0.027692   0.515837  -0.030369  -0.000060
    17  H   -0.000046   0.421775  -0.027313  -0.030369   0.526636  -0.000250
    18  C    0.000682   0.001858   0.000350  -0.000060  -0.000250   5.413791
    19  H   -0.000029   0.000047  -0.000008  -0.000004   0.000006   0.382380
    20  H    0.000443   0.000100  -0.000021  -0.000065   0.000013   0.375373
    21  H    0.000182  -0.000389  -0.000007   0.000049  -0.000049   0.398548
    22  C    0.291124  -0.000017   0.000002  -0.000000   0.000000   0.000013
    23  H   -0.029906  -0.000001   0.000000   0.000000  -0.000000  -0.000002
    24  H   -0.095741  -0.000001   0.000000   0.000000   0.000000   0.000003
    25  H   -0.039011   0.000001   0.000000  -0.000000   0.000000   0.000001
    26  C   -0.047613   0.000793   0.000273   0.000044  -0.000156   0.000030
    27  H    0.006030  -0.000362   0.000009   0.000010  -0.000049  -0.000001
    28  H   -0.002960   0.000100  -0.000010  -0.000003   0.000006   0.000000
    29  H   -0.000336   0.000073   0.000056  -0.000010   0.000013   0.000000
              19         20         21         22         23         24
     1  O   -0.000000   0.000119  -0.000133  -0.111044   0.002093   0.005019
     2  O    0.010108   0.003615   0.002310   0.000000   0.000000  -0.000000
     3  N    0.000004   0.000106   0.000009   0.000319   0.000046  -0.000135
     4  H   -0.000001   0.000001  -0.000001   0.000131  -0.000015  -0.000058
     5  C    0.026237   0.042599   0.006435   0.005141  -0.000108  -0.000741
     6  C    0.000026  -0.001073   0.000257  -0.004872   0.015893  -0.034273
     7  C    0.001497   0.002068  -0.000644  -0.000456  -0.000019   0.000075
     8  C   -0.050283  -0.064727  -0.037758  -0.000023   0.000004  -0.000011
     9  C   -0.001557  -0.007592  -0.009898  -0.002201  -0.003616   0.003768
    10  H    0.000593  -0.003856  -0.002533   0.001610  -0.000117  -0.000155
    11  H   -0.000076  -0.000343   0.001014   0.001186   0.000063  -0.000117
    12  C   -0.000510   0.006997  -0.000897  -0.287357  -0.012656   0.073467
    13  C   -0.000029   0.000443   0.000182   0.291124  -0.029906  -0.095741
    14  C    0.000047   0.000100  -0.000389  -0.000017  -0.000001  -0.000001
    15  H   -0.000008  -0.000021  -0.000007   0.000002   0.000000   0.000000
    16  H   -0.000004  -0.000065   0.000049  -0.000000   0.000000   0.000000
    17  H    0.000006   0.000013  -0.000049   0.000000  -0.000000   0.000000
    18  C    0.382380   0.375373   0.398548   0.000013  -0.000002   0.000003
    19  H    0.511917  -0.019311  -0.012320  -0.000001  -0.000000   0.000000
    20  H   -0.019311   0.547070  -0.028973   0.000013  -0.000000  -0.000000
    21  H   -0.012320  -0.028973   0.518487  -0.000001   0.000001  -0.000000
    22  C   -0.000001   0.000013  -0.000001   5.466243   0.403312   0.392105
    23  H   -0.000000  -0.000000   0.000001   0.403312   0.511426  -0.028064
    24  H    0.000000  -0.000000  -0.000000   0.392105  -0.028064   0.551275
    25  H    0.000000   0.000000  -0.000002   0.369721  -0.012488  -0.020638
    26  C    0.000001  -0.000015   0.000004  -0.029922  -0.014589   0.015140
    27  H   -0.000000  -0.000000   0.000001  -0.011138   0.002557  -0.002334
    28  H    0.000000   0.000000  -0.000000   0.007191  -0.003575  -0.009831
    29  H    0.000000   0.000000  -0.000000   0.001916  -0.000003   0.000831
              25         26         27         28         29
     1  O    0.009940   0.000792  -0.000067  -0.000377   0.000017
     2  O   -0.000000   0.000002   0.000000  -0.000000   0.000000
     3  N    0.000008  -0.038140  -0.002446   0.002254   0.001906
     4  H   -0.000003  -0.006964   0.000528   0.000794   0.001378
     5  C   -0.000143  -0.001332   0.000724  -0.000271  -0.000650
     6  C   -0.001992   0.174453  -0.052203  -0.058972  -0.057436
     7  C    0.000033   0.005806   0.000081  -0.000467   0.003902
     8  C    0.000005   0.000323  -0.000035   0.000003   0.000012
     9  C    0.001693   0.021453  -0.001879   0.001503  -0.000695
    10  H   -0.000141  -0.000048   0.000016   0.000011   0.000000
    11  H   -0.000018  -0.000476  -0.000022   0.000005   0.000049
    12  C    0.025219  -0.073916  -0.016959   0.000490   0.024008
    13  C   -0.039011  -0.047613   0.006030  -0.002960  -0.000336
    14  C    0.000001   0.000793  -0.000362   0.000100   0.000073
    15  H    0.000000   0.000273   0.000009  -0.000010   0.000056
    16  H   -0.000000   0.000044   0.000010  -0.000003  -0.000010
    17  H    0.000000  -0.000156  -0.000049   0.000006   0.000013
    18  C    0.000001   0.000030  -0.000001   0.000000   0.000000
    19  H    0.000000   0.000001  -0.000000   0.000000   0.000000
    20  H    0.000000  -0.000015  -0.000000   0.000000   0.000000
    21  H   -0.000002   0.000004   0.000001  -0.000000  -0.000000
    22  C    0.369721  -0.029922  -0.011138   0.007191   0.001916
    23  H   -0.012488  -0.014589   0.002557  -0.003575  -0.000003
    24  H   -0.020638   0.015140  -0.002334  -0.009831   0.000831
    25  H    0.511160   0.001624  -0.000391   0.001498  -0.000026
    26  C    0.001624   5.238713   0.435368   0.428444   0.394681
    27  H   -0.000391   0.435368   0.513861  -0.034623  -0.022902
    28  H    0.001498   0.428444  -0.034623   0.523320  -0.022578
    29  H   -0.000026   0.394681  -0.022902  -0.022578   0.529222
 Mulliken charges:
               1
     1  O   -0.387351
     2  O   -0.378806
     3  N   -0.133037
     4  H    0.293539
     5  C   -0.025968
     6  C    0.216007
     7  C    0.107895
     8  C    0.136134
     9  C   -0.323657
    10  H    0.205748
    11  H    0.219139
    12  C   -0.097091
    13  C    0.129762
    14  C   -0.383392
    15  H    0.119050
    16  H    0.161537
    17  H    0.159655
    18  C   -0.461433
    19  H    0.151284
    20  H    0.147459
    21  H    0.166309
    22  C   -0.492995
    23  H    0.169768
    24  H    0.150413
    25  H    0.153950
    26  C   -0.504771
    27  H    0.186229
    28  H    0.168050
    29  H    0.146573
 Sum of Mulliken charges =  -0.00000
 Mulliken charges with hydrogens summed into heavy atoms:
               1
     1  O   -0.387351
     2  O   -0.378806
     3  N    0.160502
     5  C   -0.025968
     6  C    0.216007
     7  C    0.107895
     8  C    0.136134
     9  C    0.101230
    12  C   -0.097091
    13  C    0.129762
    14  C    0.056849
    18  C    0.003618
    22  C   -0.018864
    26  C   -0.003920
 Electronic spatial extent (au):  <R**2>=           3191.1772
 Charge=             -0.0000 electrons
 Dipole moment (field-independent basis, Debye):
    X=              3.2804    Y=              7.5046    Z=             -0.7078  Tot=              8.2207
 Quadrupole moment (field-independent basis, Debye-Ang):
   XX=           -104.1083   YY=            -79.3300   ZZ=            -84.7348
   XY=             12.6943   XZ=              5.3299   YZ=             -1.3707
 Traceless Quadrupole moment (field-independent basis, Debye-Ang):
   XX=            -14.7172   YY=             10.0610   ZZ=              4.6562
   XY=             12.6943   XZ=              5.3299   YZ=             -1.3707
 Octapole moment (field-independent basis, Debye-Ang**2):
  XXX=             99.7700  YYY=             66.4912  ZZZ=              0.2285  XYY=            -36.2264
  XXY=             31.1893  XXZ=            -10.1635  XZZ=              1.4637  YZZ=             -1.8328
  YYZ=              1.8621  XYZ=             -5.4006
 Hexadecapole moment (field-independent basis, Debye-Ang**3):
 XXXX=          -3102.2900 YYYY=          -1286.2066 ZZZZ=           -154.6408 XXXY=             38.6411
 XXXZ=             60.1923 YYYX=             87.0838 YYYZ=            -22.0529 ZZZX=             -3.0404
 ZZZY=              6.6996 XXYY=           -713.9898 XXZZ=           -493.4003 YYZZ=           -243.7639
 XXYZ=             -7.8250 YYXZ=              7.3115 ZZXY=             -1.3931
 N-N= 9.007858866911D+02 E-N=-3.277234077963D+03  KE= 6.308082706272D+02
 No NMR shielding tensors so no spin-rotation constants.
 Leave Link  601 at Fri Jan 23 21:26:15 2026, MaxMem=  2147483648 cpu:               1.8 elap:               0.1
 (Enter /data/home/wyx/g16/l9999.exe)
 Electronic transition elements 
                 1             2             3             4             5 
      1  -0.633204D+03 -0.633179D+03 -0.633174D+03 -0.633142D+03 -0.633125D+03
      2  -0.158134D+01 -0.129894D+00 -0.571542D-01  0.386802D+00  0.434439D+00
      3  -0.358441D+00 -0.581790D-01  0.130400D+00 -0.171980D+01 -0.141313D+01
      4  -0.122019D+00  0.310577D-01 -0.447079D-01  0.209487D+00  0.106127D+00
      5   0.187187D+00  0.181980D-01  0.876564D-02 -0.656792D-01 -0.861330D-01
      6   0.461667D-01  0.875122D-02 -0.188007D-01  0.308124D+00  0.282495D+00
      7   0.132964D-01 -0.192970D-02  0.336338D-02 -0.333590D-01 -0.221511D-01
      8   0.867698D-01  0.837288D+00  0.509758D+00  0.835424D-01  0.182868D+00
      9  -0.411477D-01  0.137020D+00 -0.887600D+00 -0.760488D-01 -0.286857D-01
     10  -0.144208D+01 -0.235654D+00 -0.112290D+00  0.937470D-01  0.312343D+00
     11   0.184828D+00  0.396392D-01  0.261125D-01 -0.117396D+01 -0.574839D+00
     12  -0.272650D+00 -0.355214D-01 -0.383172D-01  0.178016D+00  0.325254D+00
     13   0.167597D-01 -0.575585D-02  0.398771D-01  0.776522D-02  0.529734D-01
     14  -0.504430D+00 -0.482935D-01 -0.385900D-01 -0.432474D+00 -0.773606D-01
     15   0.824817D-01 -0.674747D-02  0.592989D-01 -0.219659D-01 -0.156303D-01
     16  -0.192887D-01  0.822333D-01  0.276518D-01 -0.747796D-01  0.414875D-01
                 6 
      1  -0.633108D+03
      2  -0.595818D-01
      3   0.235059D+00
      4   0.561214D-01
      5   0.135596D-01
      6  -0.491605D-01
      7  -0.318395D-01
      8  -0.258474D-01
      9  -0.202276D-01
     10   0.136926D-01
     11  -0.235906D+00
     12  -0.197854D+00
     13   0.177179D+00
     14  -0.253846D-02
     15  -0.309555D-01
     16   0.638111D-01
 1\1\GINC-CN012\SP\RCAM-B3LYP TD-FC\TZVP\C11H15N1O2\WYX\23-Jan-2026\0\\
 #p CAM-B3LYP TZVP em=gd3bj td(nstates=6,root=1) scrf=(Solvent=TetraHyd
 roFuran,CorrectedLR,NonEquilibrium=Save) Geom=Check Guess=Read\\Title 
 Card Required\\0,1\O,0,2.835855,-1.565559,0.140749\O,0,-3.420622,-1.62
 3623,0.055146\N,0,-0.637726,1.511206,-0.348608\H,0,-0.946975,2.468788,
 -0.402347\C,0,-1.238627,-0.757933,-0.221327\C,0,0.699087,1.302599,-0.0
 98194\C,0,-1.613688,0.549488,-0.287498\C,0,-2.222736,-1.829948,-0.1077
 01\C,0,0.217406,-1.109002,-0.338689\H,0,0.462263,-1.950341,0.308273\H,
 0,0.44144,-1.476815,-1.350144\C,0,1.151045,0.022948,-0.008595\C,0,2.51
 3242,-0.394503,0.3205\C,0,-3.003807,1.089688,-0.302554\H,0,-3.006462,2
 .146982,-0.563436\H,0,-3.628662,0.549404,-1.005601\H,0,-3.472467,0.975
 425,0.672511\C,0,-1.728746,-3.250141,-0.190002\H,0,-2.575128,-3.921532
 ,-0.289464\H,0,-1.047331,-3.400214,-1.024576\H,0,-1.183133,-3.515677,0
 .715296\C,0,3.535099,0.542021,0.918365\H,0,4.049104,1.096088,0.130895\
 H,0,3.103883,1.258365,1.612781\H,0,4.275366,-0.064516,1.434805\C,0,1.4
 67934,2.579096,0.032955\H,0,1.538383,2.893104,1.074588\H,0,2.471446,2.
 498754,-0.365185\H,0,0.964558,3.375848,-0.512946\\Version=ES64L-G16Rev
 A.03\State=1-A\HF=-633.3284271\RMSD=2.852e-09\Dipole=0.2579804,3.20767
 69,-0.3238659\Quadrupole=-15.5155418,11.3905215,4.1250203,1.503619,1.8
 71207,0.3707354\PG=C01 [X(C11H15N1O2)]\\@


 A MAN BEGINS CUTTING HIS WISDOM TEETH THE 1ST
 TIME HE BITES OFF MORE THAN HE CAN CHEW.
 Job cpu time:       0 days  2 hours 42 minutes 46.5 seconds.
 Elapsed time:       0 days  0 hours 10 minutes 19.4 seconds.
 File lengths (MBytes):  RWF=    734 Int=      0 D2E=      0 Chk=     67 Scr=      1
 Normal termination of Gaussian 16 at Fri Jan 23 21:26:18 2026.
