 Entering Gaussian System, Link 0=g16
 Input=DDL-S1-cLR-gs-0.gjf
 Output=DDL-S1-cLR-gs-0.log
 Initial command:
 /data/home/wyx/g16/l1.exe "/scr/tmp/wyx/13106/Gau-1983519.inp" -scrdir="/scr/tmp/wyx/13106/"
 Entering Link 1 = /data/home/wyx/g16/l1.exe PID=   1983520.
  
 Copyright (c) 1988,1990,1992,1993,1995,1998,2003,2009,2016,
            Gaussian, Inc.  All Rights Reserved.
  
 This is part of the Gaussian(R) 16 program.  It is based on
 the Gaussian(R) 09 system (copyright 2009, Gaussian, Inc.),
 the Gaussian(R) 03 system (copyright 2003, Gaussian, Inc.),
 the Gaussian(R) 98 system (copyright 1998, Gaussian, Inc.),
 the Gaussian(R) 94 system (copyright 1995, Gaussian, Inc.),
 the Gaussian 92(TM) system (copyright 1992, Gaussian, Inc.),
 the Gaussian 90(TM) system (copyright 1990, Gaussian, Inc.),
 the Gaussian 88(TM) system (copyright 1988, Gaussian, Inc.),
 the Gaussian 86(TM) system (copyright 1986, Carnegie Mellon
 University), and the Gaussian 82(TM) system (copyright 1983,
 Carnegie Mellon University). Gaussian is a federally registered
 trademark of Gaussian, Inc.
  
 This software contains proprietary and confidential information,
 including trade secrets, belonging to Gaussian, Inc.
  
 This software is provided under written license and may be
 used, copied, transmitted, or stored only in accord with that
 written license.
  
 The following legend is applicable only to US Government
 contracts under FAR:
  
                    RESTRICTED RIGHTS LEGEND
  
 Use, reproduction and disclosure by the US Government is
 subject to restrictions as set forth in subparagraphs (a)
 and (c) of the Commercial Computer Software - Restricted
 Rights clause in FAR 52.227-19.
  
 Gaussian, Inc.
 340 Quinnipiac St., Bldg. 40, Wallingford CT 06492
  
  
 ---------------------------------------------------------------
 Warning -- This program may not be used in any manner that
 competes with the business of Gaussian, Inc. or will provide
 assistance to any competitor of Gaussian, Inc.  The licensee
 of this program is prohibited from giving any competitor of
 Gaussian, Inc. access to this program.  By using this program,
 the user acknowledges that Gaussian, Inc. is engaged in the
 business of creating and licensing software in the field of
 computational chemistry and represents and warrants to the
 licensee that it is not a competitor of Gaussian, Inc. and that
 it will not use this program in any manner prohibited above.
 ---------------------------------------------------------------
  

 Cite this work as:
 Gaussian 16, Revision A.03,
 M. J. Frisch, G. W. Trucks, H. B. Schlegel, G. E. Scuseria, 
 M. A. Robb, J. R. Cheeseman, G. Scalmani, V. Barone, 
 G. A. Petersson, H. Nakatsuji, X. Li, M. Caricato, A. V. Marenich, 
 J. Bloino, B. G. Janesko, R. Gomperts, B. Mennucci, H. P. Hratchian, 
 J. V. Ortiz, A. F. Izmaylov, J. L. Sonnenberg, D. Williams-Young, 
 F. Ding, F. Lipparini, F. Egidi, J. Goings, B. Peng, A. Petrone, 
 T. Henderson, D. Ranasinghe, V. G. Zakrzewski, J. Gao, N. Rega, 
 G. Zheng, W. Liang, M. Hada, M. Ehara, K. Toyota, R. Fukuda, 
 J. Hasegawa, M. Ishida, T. Nakajima, Y. Honda, O. Kitao, H. Nakai, 
 T. Vreven, K. Throssell, J. A. Montgomery, Jr., J. E. Peralta, 
 F. Ogliaro, M. J. Bearpark, J. J. Heyd, E. N. Brothers, K. N. Kudin, 
 V. N. Staroverov, T. A. Keith, R. Kobayashi, J. Normand, 
 K. Raghavachari, A. P. Rendell, J. C. Burant, S. S. Iyengar, 
 J. Tomasi, M. Cossi, J. M. Millam, M. Klene, C. Adamo, R. Cammi, 
 J. W. Ochterski, R. L. Martin, K. Morokuma, O. Farkas, 
 J. B. Foresman, and D. J. Fox, Gaussian, Inc., Wallingford CT, 2016.
 
 ******************************************
 Gaussian 16:  ES64L-G16RevA.03 25-Dec-2016
                23-Jan-2026 
 ******************************************
 %nprocshared=16
 Will use up to   16 processors via shared memory.
 %mem=16GB
 %oldchk=DDL-S1-cLR-0.chk
 %chk=DDL-S1-cLR-gs-0.chk
 Copying data from "DDL-S1-cLR-0.chk" to current chk file "DDL-S1-cLR-gs-0.chk"
 IOpt=  2 FromEx=T IUOpen= 4 IOptOp= 5 NList=   0 IFRang= 0 IUIn= 4 IUOut= 2.
 ----------------------------------------------------------------------
 #p CAM-B3LYP TZVP em=gd3bj scrf=(Solvent=TetraHydroFuran,NonEquilibriu
 m=Read) Geom=Check Guess=Read
 ----------------------------------------------------------------------
 1/29=2,38=1,172=1/1;
 2/12=2,40=1/2;
 3/5=19,7=101,11=2,14=-4,25=1,30=1,70=6002201,72=20,74=-40,116=-2,124=41/1,2,3;
 4/5=1/1;
 5/5=2,38=6,53=20/2;
 6/7=2,8=2,9=2,10=2,28=1/1;
 99/5=1,9=1/99;
 Leave Link    1 at Fri Jan 23 22:28:31 2026, MaxMem=  2147483648 cpu:               0.8 elap:               0.2
 (Enter /data/home/wyx/g16/l101.exe)
 -------------------
 Title Card Required
 -------------------
 Structure from the checkpoint file:  "DDL-S1-cLR-gs-0.chk"
 Charge =  0 Multiplicity = 1
 Z-Matrix found in chk file.
 O,0,2.840355,-1.575566,0.006876
 O,0,-3.430456,-1.65648,-0.200573
 N,0,-0.673261,1.51926,-0.136562
 H,0,-0.985797,2.480907,-0.184817
 C,0,-1.251081,-0.76442,-0.195008
 C,0,0.673027,1.344959,-0.001164
 C,0,-1.646543,0.587748,-0.223477
 C,0,-2.208444,-1.851824,-0.20537
 C,0,0.187435,-1.075242,-0.146137
 H,0,0.389393,-1.869159,0.584973
 H,0,0.483471,-1.587317,-1.083615
 C,0,1.146336,0.026389,0.056495
 C,0,2.518909,-0.404196,0.25469
 C,0,-3.037078,1.109507,-0.363395
 H,0,-3.030155,2.198859,-0.420899
 H,0,-3.51566,0.716076,-1.258921
 H,0,-3.660503,0.807978,0.476504
 C,0,-1.700512,-3.276547,-0.182859
 H,0,-2.493575,-3.925694,-0.546499
 H,0,-0.806587,-3.431445,-0.784002
 H,0,-1.464503,-3.572706,0.842713
 C,0,3.575614,0.523342,0.805827
 H,0,4.079,1.058186,-0.002651
 H,0,3.181872,1.256761,1.504771
 H,0,4.320435,-0.088933,1.310142
 C,0,1.471434,2.607239,0.023709
 H,0,1.768788,2.895985,1.034213
 H,0,2.376132,2.51428,-0.572765
 H,0,0.89194,3.43205,-0.392194
 Recover connectivity data from disk.
 ITRead=  0  0  0  0  0  0  0  0  0  0  0  0  0  0  0  0  0  0  0  0
 ITRead=  0  0  0  0  0  0  0  0  0
 MicOpt= -1 -1 -1 -1 -1 -1 -1 -1 -1 -1 -1 -1 -1 -1 -1 -1 -1 -1 -1 -1
 MicOpt= -1 -1 -1 -1 -1 -1 -1 -1 -1
 NAtoms=     29 NQM=       29 NQMF=       0 NMMI=      0 NMMIF=      0
                NMic=       0 NMicF=      0.
                    Isotopes and Nuclear Properties:
 (Nuclear quadrupole moments (NQMom) in fm**2, nuclear magnetic moments (NMagM)
  in nuclear magnetons)

  Atom         1           2           3           4           5           6           7           8           9          10
 IAtWgt=          16          16          14           1          12          12          12          12          12           1
 AtmWgt=  15.9949146  15.9949146  14.0030740   1.0078250  12.0000000  12.0000000  12.0000000  12.0000000  12.0000000   1.0078250
 NucSpn=           0           0           2           1           0           0           0           0           0           1
 AtZEff=   5.6000000   5.6000000   4.5500000   1.0000000   3.6000000   3.6000000   3.6000000   3.6000000   3.6000000   1.0000000
 NQMom=    0.0000000   0.0000000   2.0440000   0.0000000   0.0000000   0.0000000   0.0000000   0.0000000   0.0000000   0.0000000
 NMagM=    0.0000000   0.0000000   0.4037610   2.7928460   0.0000000   0.0000000   0.0000000   0.0000000   0.0000000   2.7928460
 AtZNuc=   8.0000000   8.0000000   7.0000000   1.0000000   6.0000000   6.0000000   6.0000000   6.0000000   6.0000000   1.0000000

  Atom        11          12          13          14          15          16          17          18          19          20
 IAtWgt=           1          12          12          12           1           1           1          12           1           1
 AtmWgt=   1.0078250  12.0000000  12.0000000  12.0000000   1.0078250   1.0078250   1.0078250  12.0000000   1.0078250   1.0078250
 NucSpn=           1           0           0           0           1           1           1           0           1           1
 AtZEff=   1.0000000   3.6000000   3.6000000   3.6000000   1.0000000   1.0000000   1.0000000   3.6000000   1.0000000   1.0000000
 NQMom=    0.0000000   0.0000000   0.0000000   0.0000000   0.0000000   0.0000000   0.0000000   0.0000000   0.0000000   0.0000000
 NMagM=    2.7928460   0.0000000   0.0000000   0.0000000   2.7928460   2.7928460   2.7928460   0.0000000   2.7928460   2.7928460
 AtZNuc=   1.0000000   6.0000000   6.0000000   6.0000000   1.0000000   1.0000000   1.0000000   6.0000000   1.0000000   1.0000000

  Atom        21          22          23          24          25          26          27          28          29
 IAtWgt=           1          12           1           1           1          12           1           1           1
 AtmWgt=   1.0078250  12.0000000   1.0078250   1.0078250   1.0078250  12.0000000   1.0078250   1.0078250   1.0078250
 NucSpn=           1           0           1           1           1           0           1           1           1
 AtZEff=   1.0000000   3.6000000   1.0000000   1.0000000   1.0000000   3.6000000   1.0000000   1.0000000   1.0000000
 NQMom=    0.0000000   0.0000000   0.0000000   0.0000000   0.0000000   0.0000000   0.0000000   0.0000000   0.0000000
 NMagM=    2.7928460   0.0000000   2.7928460   2.7928460   2.7928460   0.0000000   2.7928460   2.7928460   2.7928460
 AtZNuc=   1.0000000   6.0000000   1.0000000   1.0000000   1.0000000   6.0000000   1.0000000   1.0000000   1.0000000
 Leave Link  101 at Fri Jan 23 22:28:33 2026, MaxMem=  2147483648 cpu:               0.9 elap:               0.1
 (Enter /data/home/wyx/g16/l202.exe)
                          Input orientation:                          
 ---------------------------------------------------------------------
 Center     Atomic      Atomic             Coordinates (Angstroms)
 Number     Number       Type             X           Y           Z
 ---------------------------------------------------------------------
      1          8           0        2.840355   -1.575566    0.006876
      2          8           0       -3.430456   -1.656480   -0.200573
      3          7           0       -0.673261    1.519260   -0.136562
      4          1           0       -0.985797    2.480907   -0.184817
      5          6           0       -1.251081   -0.764420   -0.195008
      6          6           0        0.673027    1.344959   -0.001164
      7          6           0       -1.646543    0.587748   -0.223477
      8          6           0       -2.208444   -1.851824   -0.205370
      9          6           0        0.187435   -1.075242   -0.146137
     10          1           0        0.389393   -1.869159    0.584973
     11          1           0        0.483471   -1.587317   -1.083615
     12          6           0        1.146336    0.026389    0.056495
     13          6           0        2.518909   -0.404196    0.254690
     14          6           0       -3.037078    1.109507   -0.363395
     15          1           0       -3.030155    2.198859   -0.420899
     16          1           0       -3.515660    0.716076   -1.258921
     17          1           0       -3.660503    0.807978    0.476504
     18          6           0       -1.700512   -3.276547   -0.182859
     19          1           0       -2.493575   -3.925694   -0.546499
     20          1           0       -0.806587   -3.431445   -0.784002
     21          1           0       -1.464503   -3.572706    0.842713
     22          6           0        3.575614    0.523342    0.805827
     23          1           0        4.079000    1.058186   -0.002651
     24          1           0        3.181872    1.256761    1.504771
     25          1           0        4.320435   -0.088933    1.310142
     26          6           0        1.471434    2.607239    0.023709
     27          1           0        1.768788    2.895985    1.034213
     28          1           0        2.376132    2.514280   -0.572765
     29          1           0        0.891940    3.432050   -0.392194
 ---------------------------------------------------------------------
                    Distance matrix (angstroms):
                    1          2          3          4          5
     1  O    0.000000
     2  O    6.274763   0.000000
     3  N    4.684444   4.206132   0.000000
     4  H    5.579530   4.805682   1.012310   0.000000
     5  C    4.175951   2.354884   2.356371   3.256168   0.000000
     6  C    3.636872   5.087924   1.364260   2.018862   2.861686
     7  C    4.986506   2.866955   1.350017   2.005525   1.409099
     8  C    5.060804   1.237536   3.704825   4.501982   1.448827
     9  C    2.704020   3.664688   2.733556   3.744885   1.472524
    10  H    2.535273   3.905581   3.623704   4.626748   2.126023
    11  H    2.596962   4.012901   3.447573   4.417809   2.115527
    12  C    2.332043   4.883150   2.361539   3.260197   2.536975
    13  C    1.239696   6.096755   3.747360   4.560696   3.813766
    14  C    6.472321   2.798561   2.409768   2.473941   2.594175
    15  H    6.992293   3.882322   2.469342   2.077182   3.463691
    16  H    6.874067   2.599304   3.159751   3.266272   2.907249
    17  H    6.939956   2.566108   3.131355   3.223366   2.954434
    18  C    4.852711   2.370156   4.904809   5.801646   2.552042
    19  H    5.854924   2.479263   5.755790   6.591566   3.414819
    20  H    4.167728   3.221115   4.994641   5.945338   2.767221
    21  H    4.818609   2.936893   5.245299   6.158832   3.001480
    22  C    2.363122   7.406044   4.464626   5.061611   5.094800
    23  H    2.910495   7.987522   4.776453   5.263980   5.636369
    24  H    3.222173   7.424153   4.198206   4.660762   5.159990
    25  H    2.469659   8.050824   5.442080   6.082358   5.810641
    26  C    4.401146   6.500625   2.410208   2.469297   4.339125
    27  H    4.711523   7.020098   3.038040   3.040734   4.901954
    28  H    4.156721   7.158927   3.237149   3.384403   4.904003
    29  H    5.388116   6.679294   2.484747   2.115083   4.716119
                    6          7          8          9         10
     6  C    0.000000
     7  C    2.450142   0.000000
     8  C    4.308596   2.503512   0.000000
     9  C    2.472689   2.476892   2.519290   0.000000
    10  H    3.279414   3.291659   2.715456   1.098004   0.000000
    11  H    3.131433   3.163496   2.843885   1.108478   1.694837
    12  C    1.402132   2.862461   3.853674   1.474497   2.108401
    13  C    2.555833   4.308548   4.965395   2.459011   2.605771
    14  C    3.735174   1.491776   3.079137   3.901002   4.638163
    15  H    3.823464   2.132847   4.138804   4.598708   5.408684
    16  H    4.418432   2.140610   3.068044   4.261458   5.033172
    17  H    4.392721   2.143481   3.106119   4.329068   4.855974
    18  C    5.198559   3.864885   1.512725   2.900248   2.634010
    19  H    6.172888   4.603582   2.120992   3.933596   3.717670
    20  H    5.061238   4.144107   2.189799   2.635649   2.396914
    21  H    5.428130   4.298753   2.147874   3.153419   2.530896
    22  C    3.122707   5.323020   6.333977   3.865419   3.990594
    23  H    3.418025   5.749080   6.931176   4.440313   4.746351
    24  H    2.927443   5.171848   6.453169   4.138887   4.291310
    25  H    4.132693   6.197960   6.930427   4.491686   4.375862
    26  C    1.493795   3.723067   5.785950   3.903610   4.639393
    27  H    2.162956   4.309783   6.316378   4.434473   4.981079
    28  H    2.143503   4.473862   6.341623   4.225763   4.949952
    29  H    2.134661   3.816073   6.129161   4.568649   5.413892
                   11         12         13         14         15
    11  H    0.000000
    12  C    2.084056   0.000000
    13  C    2.708107   1.452116   0.000000
    14  C    4.492866   4.341705   5.791573   0.000000
    15  H    5.207676   4.731872   6.166395   1.090891   0.000000
    16  H    4.618376   4.892872   6.321554   1.088942   1.771057
    17  H    5.034276   4.888046   6.301087   1.088581   1.771220
    18  C    2.904245   4.367061   5.123023   4.588733   5.639564
    19  H    3.823520   5.406618   6.178013   5.067758   6.149296
    20  H    2.270424   4.059182   4.615413   5.076637   6.064357
    21  H    3.383358   4.515319   5.123748   5.084369   6.112196
    22  C    4.193593   2.590338   1.510200   6.740799   6.924478
    23  H    4.592929   3.109441   2.153757   7.125401   7.212222
    24  H    4.697860   2.784731   2.181972   6.495157   6.571532
    25  H    4.764191   3.414650   2.111603   7.640025   7.890606
    26  C    4.449330   2.601452   3.196763   4.766522   4.541889
    27  H    5.122229   3.094828   3.472972   5.314241   5.062923
    28  H    4.546013   2.845693   3.036868   5.596433   5.417610
    29  H    5.083203   3.444498   4.216903   4.564232   4.111498
                   16         17         18         19         20
    16  H    0.000000
    17  H    1.743882   0.000000
    18  C    4.515940   4.578173   0.000000
    19  H    4.806062   4.981557   1.087463   0.000000
    20  H    4.976601   5.263689   1.088333   1.773871   0.000000
    21  H    5.197861   4.913951   1.093256   1.764511   1.760400
    22  C    7.388268   7.249197   6.576790   7.645768   6.113230
    23  H    7.705460   7.758357   7.226697   8.266412   6.681037
    24  H    7.265485   6.933746   6.872892   7.954637   6.567006
    25  H    8.285681   8.074328   6.974363   8.037324   6.468708
    26  C    5.485685   5.457027   6.687514   7.663266   6.504420
    27  H    6.159209   5.843630   7.184529   8.197664   7.069288
    28  H    6.198190   6.360298   7.092583   8.073909   6.747293
    29  H    5.249254   5.325892   7.195130   8.100736   7.081389
                   21         22         23         24         25
    21  H    0.000000
    22  C    6.494748   0.000000
    23  H    7.272567   1.092288   0.000000
    24  H    6.734306   1.086949   1.765387   0.000000
    25  H    6.769097   1.088105   1.760000   1.773443   0.000000
    26  C    6.890734   3.062990   3.033094   2.634945   4.128082
    27  H    7.234280   2.991022   3.128845   2.214788   3.936594
    28  H    7.335220   2.702426   2.311925   2.558657   3.755312
    29  H    7.492958   4.134966   3.993035   3.684311   5.200947
                   26         27         28         29
    26  C    0.000000
    27  H    1.092205   0.000000
    28  H    1.087613   1.759814   0.000000
    29  H    1.090459   1.758086   1.754347   0.000000
 Stoichiometry    C11H15NO2
 Framework group  C1[X(C11H15NO2)]
 Deg. of freedom    81
 Full point group                 C1      NOp   1
 RotChk:  IX=0 Diff= 8.95D-16
 Largest Abelian subgroup         C1      NOp   1
 Largest concise Abelian subgroup C1      NOp   1
                         Standard orientation:                         
 ---------------------------------------------------------------------
 Center     Atomic      Atomic             Coordinates (Angstroms)
 Number     Number       Type             X           Y           Z
 ---------------------------------------------------------------------
      1          8           0        2.281703   -2.288047   -0.293853
      2          8           0       -3.637297   -0.264108    0.197842
      3          7           0        0.017309    1.804723   -0.037396
      4          1           0        0.042781    2.816656   -0.048113
      5          6           0       -1.296873   -0.151142   -0.036964
      6          6           0        1.233124    1.186055   -0.053150
      7          6           0       -1.215778    1.255490   -0.017795
      8          6           0       -2.559469   -0.855562    0.056545
      9          6           0       -0.049584   -0.925721   -0.149322
     10          1           0       -0.051205   -1.769948    0.552741
     11          1           0       -0.041986   -1.469498   -1.115227
     12          6           0        1.239227   -0.216063   -0.051892
     13          6           0        2.400081   -1.087386   -0.008818
     14          6           0       -2.356757    2.216362   -0.000723
     15          1           0       -1.990292    3.242376   -0.055869
     16          1           0       -3.030075    2.041072   -0.838405
     17          1           0       -2.954306    2.106919    0.902585
     18          6           0       -2.560272   -2.367815    0.018750
     19          1           0       -3.558573   -2.700207   -0.255997
     20          1           0       -1.838006   -2.788004   -0.678560
     21          1           0       -2.332173   -2.766287    1.010918
     22          6           0        3.758207   -0.588191    0.423620
     23          1           0        4.325035   -0.220199   -0.434506
     24          1           0        3.708697    0.206147    1.163914
     25          1           0        4.302207   -1.433407    0.840329
     26          6           0        2.407176    2.107636   -0.114099
     27          1           0        2.887631    2.240208    0.857755
     28          1           0        3.160821    1.742006   -0.807810
     29          1           0        2.098537    3.094366   -0.460809
 ---------------------------------------------------------------------
 Rotational constants (GHZ):           1.0702310           0.4891896           0.3417435
 Leave Link  202 at Fri Jan 23 22:28:33 2026, MaxMem=  2147483648 cpu:               0.0 elap:               0.0
 (Enter /data/home/wyx/g16/l301.exe)
 Standard basis: TZVP (5D, 7F)
 Ernie: Thresh=  0.10000D-02 Tol=  0.10000D-05 Strict=F.
 There are   370 symmetry adapted cartesian basis functions of A   symmetry.
 There are   356 symmetry adapted basis functions of A   symmetry.
   356 basis functions,   610 primitive gaussians,   370 cartesian basis functions
    52 alpha electrons       52 beta electrons
       nuclear repulsion energy       898.0749020426 Hartrees.
 IExCor=20419 DFT=T Ex+Corr=CAM-B3LYP ExCW=0 ScaHFX=  1.000000
 ScaDFX=  1.000000  1.000000  1.000000  0.810000 ScalE2=  1.000000  1.000000
 IRadAn=      5 IRanWt=     -1 IRanGd=            0 ICorTp=0 IEmpDi=141
 HFx  wShort=  0.000000 wLong=  0.330000 cFull=  0.190000 cShort=  0.000000 cLong=  0.460000
 DFx  wShort=  0.000000 wLong=  0.330000 cFull=  0.190000 cShort=  0.000000 cLong=  0.460000
 NAtoms=   29 NActive=   29 NUniq=   29 SFac= 1.00D+00 NAtFMM=   60 NAOKFM=F Big=F
 Integral buffers will be    131072 words long.
 Raffenetti 2 integral format.
 Two-electron integral symmetry is turned on.
 R6Disp:  Grimme-D3(BJ) Dispersion energy=       -0.0260901914 Hartrees.
 Nuclear repulsion after empirical dispersion term =      898.0488118512 Hartrees.
 ------------------------------------------------------------------------------
 Polarizable Continuum Model (PCM)
 =================================
 Model                : PCM.
 Atomic radii         : UFF (Universal Force Field).
 Polarization charges : Total charges.
 Charge compensation  : None.
 Solution method      : On-the-fly selection.
 Cavity type          : Scaled VdW (van der Waals Surface) (Alpha=1.100).
 Cavity algorithm     : GePol (No added spheres)
                        Default sphere list used, NSphG=   29.
                        Lebedev-Laikov grids with approx.  5.0 points / Ang**2.
                        Smoothing algorithm: York/Karplus (Gamma=1.0000).
                        Polarization charges: spherical gaussians, with
                                              point-specific exponents (IZeta= 3).
                        Self-potential: point-specific (ISelfS= 7).
                        Self-field    : sphere-specific E.n sum rule (ISelfD= 2).
 Solvent              : TetraHydroFuran, Eps=   7.425700 Eps(inf)=   1.974025
 ------------------------------------------------------------------------------
 GePol: Number of generator spheres                  =      29
 GePol: Total number of spheres                      =      29
 GePol: Number of exposed spheres                    =      29 (100.00%)
 GePol: Number of points                             =    2100
 GePol: Average weight of points                     =       0.13
 GePol: Minimum weight of points                     =   0.97D-10
 GePol: Maximum weight of points                     =    0.20577
 GePol: Number of points with low weight             =     134
 GePol: Fraction of low-weight points (<1% of avg)   =       6.38%
 GePol: Cavity surface area                          =    269.895 Ang**2
 GePol: Cavity volume                                =    287.884 Ang**3
 Leave Link  301 at Fri Jan 23 22:28:33 2026, MaxMem=  2147483648 cpu:               0.6 elap:               0.0
 (Enter /data/home/wyx/g16/l302.exe)
 NPDir=0 NMtPBC=     1 NCelOv=     1 NCel=       1 NClECP=     1 NCelD=      1
         NCelK=      1 NCelE2=     1 NClLst=     1 CellRange=     0.0.
 One-electron integrals computed using PRISM.
 One-electron integral symmetry used in STVInt
 NBasis=   356 RedAO= T EigKep=  3.81D-05  NBF=   356
 NBsUse=   356 1.00D-06 EigRej= -1.00D+00 NBFU=   356
 Precomputing XC quadrature grid using
 IXCGrd= 4 IRadAn=           5 IRanWt=          -1 IRanGd=           0 AccXCQ= 0.00D+00.
 Generated NRdTot=       0 NPtTot=           0 NUsed=           0 NTot=          32
 NSgBfM=   366   366   366   366   366 MxSgAt=    29 MxSgA2=    29.
 Leave Link  302 at Fri Jan 23 22:28:34 2026, MaxMem=  2147483648 cpu:               3.1 elap:               0.2
 (Enter /data/home/wyx/g16/l303.exe)
 DipDrv:  MaxL=1.
 Leave Link  303 at Fri Jan 23 22:28:34 2026, MaxMem=  2147483648 cpu:               0.6 elap:               0.0
 (Enter /data/home/wyx/g16/l401.exe)
 Initial guess from the checkpoint file:  "DDL-S1-cLR-gs-0.chk"
 B after Tr=    -0.000000    0.000000    0.000000
         Rot=    1.000000   -0.000000    0.000000    0.000000 Ang=   0.00 deg.
 Guess basis will be translated and rotated to current coordinates.
 JPrj=2 DoOrth=T DoCkMO=T.
 Leave Link  401 at Fri Jan 23 22:28:34 2026, MaxMem=  2147483648 cpu:               2.3 elap:               0.2
 (Enter /data/home/wyx/g16/l502.exe)
 Integral symmetry usage will be decided dynamically.
 Closed shell SCF:
 Using DIIS extrapolation, IDIIS=  1040.
 NGot=  2147483648 LenX=  2147200095 LenY=  2147062754
 Requested convergence on RMS density matrix=1.00D-08 within 128 cycles.
 Requested convergence on MAX density matrix=1.00D-06.
 Requested convergence on             energy=1.00D-06.
 No special actions if energy rises.
 Fock matrices will be formed incrementally for  20 cycles.

 Cycle   1  Pass 1  IDiag  1:
 FoFJK:  IHMeth= 1 ICntrl=       0 DoSepK=T KAlg= 0 I1Cent=           0 FoldK=F
 IRaf=         1 NMat=       1 IRICut=       1 DoRegI=T DoRafI=F ISym2E= 0 IDoP0=0 IntGTp=1.
 FoFCou: FMM=F IPFlag=           0 FMFlag=      100000 FMFlg1=           0
         NFxFlg=           0 DoJE=T BraDBF=F KetDBF=F FulRan=T
         wScrn=  0.000000 ICntrl=       500 IOpCl=  0 I1Cent=           0 NGrid=           0
         NMat0=    1 NMatS0=      1 NMatT0=    0 NMatD0=    1 NMtDS0=    0 NMtDT0=    0
 Symmetry not used in FoFCou.
 Inv3:  Mode=1 IEnd=    13230000.
 Iteration    1 A*A^-1 deviation from unit magnitude is 2.89D-15 for   1015.
 Iteration    1 A*A^-1 deviation from orthogonality  is 2.42D-15 for   1338    970.
 Iteration    1 A^-1*A deviation from unit magnitude is 2.89D-15 for   1015.
 Iteration    1 A^-1*A deviation from orthogonality  is 9.52D-14 for   1369   1338.
 NEqPCM:  Using non-equilibrium solvation (IEInf=1, Eps=   7.4257, EpsInf=   1.9740)
 Inv3:  Mode=1 IEnd=    13230000.
 Iteration    1 A*A^-1 deviation from unit magnitude is 3.22D-15 for    190.
 Iteration    1 A*A^-1 deviation from orthogonality  is 1.80D-15 for   2012    800.
 Iteration    1 A^-1*A deviation from unit magnitude is 3.22D-15 for    190.
 Iteration    1 A^-1*A deviation from orthogonality  is 2.07D-15 for    548    370.
 E= -633.316665334592    
 DIIS: error= 1.67D-04 at cycle   1 NSaved=   1.
 NSaved= 1 IEnMin= 1 EnMin= -633.316665334592     IErMin= 1 ErrMin= 1.67D-04
 ErrMax= 1.67D-04  0.00D+00 EMaxC= 1.00D-01 BMatC= 9.23D-06 BMatP= 9.23D-06
 IDIUse=3 WtCom= 9.98D-01 WtEn= 1.67D-03
 Coeff-Com:  0.100D+01
 Coeff-En:   0.100D+01
 Coeff:      0.100D+01
 Gap=     0.213 Goal=   None    Shift=    0.000
 RMSDP=1.43D-04 MaxDP=8.29D-03              OVMax= 2.62D-03

 Cycle   2  Pass 1  IDiag  1:
 RMSU=  1.42D-04    CP:  9.99D-01
 E= -633.316683465944     Delta-E=       -0.000018131352 Rises=F Damp=F
 DIIS: error= 9.88D-05 at cycle   2 NSaved=   2.
 NSaved= 2 IEnMin= 2 EnMin= -633.316683465944     IErMin= 2 ErrMin= 9.88D-05
 ErrMax= 9.88D-05  0.00D+00 EMaxC= 1.00D-01 BMatC= 4.66D-06 BMatP= 9.23D-06
 IDIUse=1 WtCom= 1.00D+00 WtEn= 0.00D+00
 Coeff-Com:  0.384D+00 0.616D+00
 Coeff:      0.384D+00 0.616D+00
 Gap=     0.213 Goal=   None    Shift=    0.000
 RMSDP=2.51D-05 MaxDP=2.11D-03 DE=-1.81D-05 OVMax= 6.80D-04

 Cycle   3  Pass 1  IDiag  1:
 RMSU=  1.87D-05    CP:  1.00D+00  9.00D-01
 E= -633.316687120100     Delta-E=       -0.000003654156 Rises=F Damp=F
 DIIS: error= 6.56D-05 at cycle   3 NSaved=   3.
 NSaved= 3 IEnMin= 3 EnMin= -633.316687120100     IErMin= 3 ErrMin= 6.56D-05
 ErrMax= 6.56D-05  0.00D+00 EMaxC= 1.00D-01 BMatC= 1.40D-06 BMatP= 4.66D-06
 IDIUse=1 WtCom= 1.00D+00 WtEn= 0.00D+00
 Coeff-Com:  0.727D-01 0.339D+00 0.588D+00
 Coeff:      0.727D-01 0.339D+00 0.588D+00
 Gap=     0.213 Goal=   None    Shift=    0.000
 RMSDP=9.55D-06 MaxDP=6.06D-04 DE=-3.65D-06 OVMax= 3.85D-04

 Cycle   4  Pass 1  IDiag  1:
 RMSU=  8.76D-06    CP:  9.99D-01  9.03D-01  8.90D-01
 E= -633.316688196165     Delta-E=       -0.000001076065 Rises=F Damp=F
 DIIS: error= 1.63D-05 at cycle   4 NSaved=   4.
 NSaved= 4 IEnMin= 4 EnMin= -633.316688196165     IErMin= 4 ErrMin= 1.63D-05
 ErrMax= 1.63D-05  0.00D+00 EMaxC= 1.00D-01 BMatC= 1.06D-07 BMatP= 1.40D-06
 IDIUse=1 WtCom= 1.00D+00 WtEn= 0.00D+00
 Coeff-Com: -0.114D-01 0.658D-01 0.236D+00 0.710D+00
 Coeff:     -0.114D-01 0.658D-01 0.236D+00 0.710D+00
 Gap=     0.213 Goal=   None    Shift=    0.000
 RMSDP=4.30D-06 MaxDP=3.33D-04 DE=-1.08D-06 OVMax= 1.87D-04

 Cycle   5  Pass 1  IDiag  1:
 RMSU=  2.62D-06    CP:  9.99D-01  9.05D-01  1.05D+00  1.02D+00
 E= -633.316688293939     Delta-E=       -0.000000097774 Rises=F Damp=F
 DIIS: error= 4.91D-06 at cycle   5 NSaved=   5.
 NSaved= 5 IEnMin= 5 EnMin= -633.316688293939     IErMin= 5 ErrMin= 4.91D-06
 ErrMax= 4.91D-06  0.00D+00 EMaxC= 1.00D-01 BMatC= 1.91D-08 BMatP= 1.06D-07
 IDIUse=1 WtCom= 1.00D+00 WtEn= 0.00D+00
 Coeff-Com: -0.126D-01-0.171D-01 0.221D-01 0.321D+00 0.687D+00
 Coeff:     -0.126D-01-0.171D-01 0.221D-01 0.321D+00 0.687D+00
 Gap=     0.213 Goal=   None    Shift=    0.000
 RMSDP=1.29D-06 MaxDP=9.73D-05 DE=-9.78D-08 OVMax= 7.87D-05

 Cycle   6  Pass 1  IDiag  1:
 RMSU=  9.89D-07    CP:  9.99D-01  9.04D-01  1.07D+00  1.11D+00  1.06D+00
 E= -633.316688317543     Delta-E=       -0.000000023604 Rises=F Damp=F
 DIIS: error= 3.81D-06 at cycle   6 NSaved=   6.
 NSaved= 6 IEnMin= 6 EnMin= -633.316688317543     IErMin= 6 ErrMin= 3.81D-06
 ErrMax= 3.81D-06  0.00D+00 EMaxC= 1.00D-01 BMatC= 9.94D-10 BMatP= 1.91D-08
 IDIUse=1 WtCom= 1.00D+00 WtEn= 0.00D+00
 Coeff-Com: -0.826D-03-0.102D-01-0.161D-01-0.153D-01 0.120D+00 0.922D+00
 Coeff:     -0.826D-03-0.102D-01-0.161D-01-0.153D-01 0.120D+00 0.922D+00
 Gap=     0.213 Goal=   None    Shift=    0.000
 RMSDP=7.93D-07 MaxDP=6.34D-05 DE=-2.36D-08 OVMax= 6.03D-05

 Cycle   7  Pass 1  IDiag  1:
 RMSU=  3.06D-07    CP:  9.99D-01  9.02D-01  1.08D+00  1.14D+00  1.20D+00
                    CP:  1.38D+00
 E= -633.316688321064     Delta-E=       -0.000000003521 Rises=F Damp=F
 DIIS: error= 2.17D-06 at cycle   7 NSaved=   7.
 NSaved= 7 IEnMin= 7 EnMin= -633.316688321064     IErMin= 7 ErrMin= 2.17D-06
 ErrMax= 2.17D-06  0.00D+00 EMaxC= 1.00D-01 BMatC= 3.62D-10 BMatP= 9.94D-10
 IDIUse=1 WtCom= 1.00D+00 WtEn= 0.00D+00
 Coeff-Com:  0.127D-02-0.240D-02-0.717D-02-0.436D-01-0.502D-01 0.379D+00
 Coeff-Com:  0.724D+00
 Coeff:      0.127D-02-0.240D-02-0.717D-02-0.436D-01-0.502D-01 0.379D+00
 Coeff:      0.724D+00
 Gap=     0.213 Goal=   None    Shift=    0.000
 RMSDP=2.34D-07 MaxDP=1.01D-05 DE=-3.52D-09 OVMax= 2.67D-05

 Cycle   8  Pass 1  IDiag  1:
 RMSU=  1.27D-07    CP:  9.99D-01  9.01D-01  1.08D+00  1.15D+00  1.23D+00
                    CP:  1.50D+00  1.17D+00
 E= -633.316688321868     Delta-E=       -0.000000000805 Rises=F Damp=F
 DIIS: error= 8.86D-07 at cycle   8 NSaved=   8.
 NSaved= 8 IEnMin= 8 EnMin= -633.316688321868     IErMin= 8 ErrMin= 8.86D-07
 ErrMax= 8.86D-07  0.00D+00 EMaxC= 1.00D-01 BMatC= 9.24D-11 BMatP= 3.62D-10
 IDIUse=1 WtCom= 1.00D+00 WtEn= 0.00D+00
 Coeff-Com:  0.803D-03 0.802D-03 0.927D-03-0.153D-01-0.610D-01-0.652D-01
 Coeff-Com:  0.337D+00 0.802D+00
 Coeff:      0.803D-03 0.802D-03 0.927D-03-0.153D-01-0.610D-01-0.652D-01
 Coeff:      0.337D+00 0.802D+00
 Gap=     0.213 Goal=   None    Shift=    0.000
 RMSDP=1.99D-07 MaxDP=1.04D-05 DE=-8.05D-10 OVMax= 1.77D-05

 Cycle   9  Pass 1  IDiag  1:
 RMSU=  7.03D-08    CP:  9.99D-01  9.01D-01  1.08D+00  1.15D+00  1.25D+00
                    CP:  1.64D+00  1.49D+00  1.20D+00
 E= -633.316688322120     Delta-E=       -0.000000000252 Rises=F Damp=F
 DIIS: error= 4.03D-07 at cycle   9 NSaved=   9.
 NSaved= 9 IEnMin= 9 EnMin= -633.316688322120     IErMin= 9 ErrMin= 4.03D-07
 ErrMax= 4.03D-07  0.00D+00 EMaxC= 1.00D-01 BMatC= 1.64D-11 BMatP= 9.24D-11
 IDIUse=1 WtCom= 1.00D+00 WtEn= 0.00D+00
 Coeff-Com:  0.145D-03 0.802D-03 0.195D-02 0.258D-02-0.193D-01-0.106D+00
 Coeff-Com:  0.181D-01 0.368D+00 0.734D+00
 Coeff:      0.145D-03 0.802D-03 0.195D-02 0.258D-02-0.193D-01-0.106D+00
 Coeff:      0.181D-01 0.368D+00 0.734D+00
 Gap=     0.213 Goal=   None    Shift=    0.000
 RMSDP=6.25D-08 MaxDP=2.28D-06 DE=-2.52D-10 OVMax= 6.84D-06

 Cycle  10  Pass 1  IDiag  1:
 RMSU=  2.74D-08    CP:  9.99D-01  9.01D-01  1.08D+00  1.15D+00  1.25D+00
                    CP:  1.68D+00  1.58D+00  1.36D+00  1.13D+00
 E= -633.316688322167     Delta-E=       -0.000000000047 Rises=F Damp=F
 DIIS: error= 1.39D-07 at cycle  10 NSaved=  10.
 NSaved=10 IEnMin=10 EnMin= -633.316688322167     IErMin=10 ErrMin= 1.39D-07
 ErrMax= 1.39D-07  0.00D+00 EMaxC= 1.00D-01 BMatC= 2.16D-12 BMatP= 1.64D-11
 IDIUse=1 WtCom= 1.00D+00 WtEn= 0.00D+00
 Coeff-Com: -0.806D-04 0.221D-03 0.417D-03 0.371D-02 0.289D-02-0.292D-01
 Coeff-Com: -0.464D-01-0.629D-02 0.254D+00 0.820D+00
 Coeff:     -0.806D-04 0.221D-03 0.417D-03 0.371D-02 0.289D-02-0.292D-01
 Coeff:     -0.464D-01-0.629D-02 0.254D+00 0.820D+00
 Gap=     0.213 Goal=   None    Shift=    0.000
 RMSDP=3.13D-08 MaxDP=1.69D-06 DE=-4.67D-11 OVMax= 2.73D-06

 Cycle  11  Pass 1  IDiag  1:
 RMSU=  8.46D-09    CP:  9.99D-01  9.01D-01  1.08D+00  1.15D+00  1.24D+00
                    CP:  1.70D+00  1.63D+00  1.41D+00  1.35D+00  1.16D+00
 E= -633.316688322168     Delta-E=       -0.000000000002 Rises=F Damp=F
 DIIS: error= 4.02D-08 at cycle  11 NSaved=  11.
 NSaved=11 IEnMin=11 EnMin= -633.316688322168     IErMin=11 ErrMin= 4.02D-08
 ErrMax= 4.02D-08  0.00D+00 EMaxC= 1.00D-01 BMatC= 6.11D-13 BMatP= 2.16D-12
 IDIUse=1 WtCom= 1.00D+00 WtEn= 0.00D+00
 Coeff-Com: -0.581D-04 0.305D-04-0.128D-03 0.147D-02 0.419D-02 0.180D-02
 Coeff-Com: -0.224D-01-0.551D-01 0.112D-01 0.410D+00 0.649D+00
 Coeff:     -0.581D-04 0.305D-04-0.128D-03 0.147D-02 0.419D-02 0.180D-02
 Coeff:     -0.224D-01-0.551D-01 0.112D-01 0.410D+00 0.649D+00
 Gap=     0.213 Goal=   None    Shift=    0.000
 RMSDP=9.33D-09 MaxDP=6.22D-07 DE=-1.82D-12 OVMax= 6.68D-07

 Error on total polarization charges =  0.00948
 SCF Done:  E(RCAM-B3LYP) =  -633.316688322     A.U. after   11 cycles
            NFock= 11  Conv=0.93D-08     -V/T= 2.0044
 KE= 6.305537685334D+02 PE=-3.271910014781D+03 EE= 1.109990746074D+03
 Leave Link  502 at Fri Jan 23 22:29:19 2026, MaxMem=  2147483648 cpu:             690.7 elap:              43.8
 (Enter /data/home/wyx/g16/l601.exe)
 Copying SCF densities to generalized density rwf, IOpCl= 0 IROHF=0.

 **********************************************************************

            Population analysis using the SCF density.

 **********************************************************************

 Orbital symmetries:
       Occupied  (A) (A) (A) (A) (A) (A) (A) (A) (A) (A) (A) (A)
                 (A) (A) (A) (A) (A) (A) (A) (A) (A) (A) (A) (A)
                 (A) (A) (A) (A) (A) (A) (A) (A) (A) (A) (A) (A)
                 (A) (A) (A) (A) (A) (A) (A) (A) (A) (A) (A) (A)
                 (A) (A) (A) (A)
       Virtual   (A) (A) (A) (A) (A) (A) (A) (A) (A) (A) (A) (A)
                 (A) (A) (A) (A) (A) (A) (A) (A) (A) (A) (A) (A)
                 (A) (A) (A) (A) (A) (A) (A) (A) (A) (A) (A) (A)
                 (A) (A) (A) (A) (A) (A) (A) (A) (A) (A) (A) (A)
                 (A) (A) (A) (A) (A) (A) (A) (A) (A) (A) (A) (A)
                 (A) (A) (A) (A) (A) (A) (A) (A) (A) (A) (A) (A)
                 (A) (A) (A) (A) (A) (A) (A) (A) (A) (A) (A) (A)
                 (A) (A) (A) (A) (A) (A) (A) (A) (A) (A) (A) (A)
                 (A) (A) (A) (A) (A) (A) (A) (A) (A) (A) (A) (A)
                 (A) (A) (A) (A) (A) (A) (A) (A) (A) (A) (A) (A)
                 (A) (A) (A) (A) (A) (A) (A) (A) (A) (A) (A) (A)
                 (A) (A) (A) (A) (A) (A) (A) (A) (A) (A) (A) (A)
                 (A) (A) (A) (A) (A) (A) (A) (A) (A) (A) (A) (A)
                 (A) (A) (A) (A) (A) (A) (A) (A) (A) (A) (A) (A)
                 (A) (A) (A) (A) (A) (A) (A) (A) (A) (A) (A) (A)
                 (A) (A) (A) (A) (A) (A) (A) (A) (A) (A) (A) (A)
                 (A) (A) (A) (A) (A) (A) (A) (A) (A) (A) (A) (A)
                 (A) (A) (A) (A) (A) (A) (A) (A) (A) (A) (A) (A)
                 (A) (A) (A) (A) (A) (A) (A) (A) (A) (A) (A) (A)
                 (A) (A) (A) (A) (A) (A) (A) (A) (A) (A) (A) (A)
                 (A) (A) (A) (A) (A) (A) (A) (A) (A) (A) (A) (A)
                 (A) (A) (A) (A) (A) (A) (A) (A) (A) (A) (A) (A)
                 (A) (A) (A) (A) (A) (A) (A) (A) (A) (A) (A) (A)
                 (A) (A) (A) (A) (A) (A) (A) (A) (A) (A) (A) (A)
                 (A) (A) (A) (A) (A) (A) (A) (A) (A) (A) (A) (A)
                 (A) (A) (A) (A)
 The electronic state is 1-A.
 Alpha  occ. eigenvalues --  -19.17788 -19.16750 -14.44872 -10.33360 -10.33020
 Alpha  occ. eigenvalues --  -10.32679 -10.32315 -10.26418 -10.25456 -10.25163
 Alpha  occ. eigenvalues --  -10.24661 -10.24321 -10.24210 -10.23593  -1.11231
 Alpha  occ. eigenvalues --   -1.10492  -1.08544  -0.91378  -0.90406  -0.83908
 Alpha  occ. eigenvalues --   -0.82634  -0.81656  -0.78412  -0.73667  -0.72286
 Alpha  occ. eigenvalues --   -0.68635  -0.61439  -0.58217  -0.57032  -0.55054
 Alpha  occ. eigenvalues --   -0.54532  -0.53942  -0.52393  -0.51702  -0.50829
 Alpha  occ. eigenvalues --   -0.49687  -0.49455  -0.49168  -0.48687  -0.47875
 Alpha  occ. eigenvalues --   -0.47307  -0.45305  -0.44962  -0.44023  -0.43305
 Alpha  occ. eigenvalues --   -0.42029  -0.41921  -0.41338  -0.32481  -0.32111
 Alpha  occ. eigenvalues --   -0.31014  -0.24784
 Alpha virt. eigenvalues --   -0.03453   0.02565   0.06246   0.08151   0.08357
 Alpha virt. eigenvalues --    0.09646   0.10771   0.11446   0.12478   0.13378
 Alpha virt. eigenvalues --    0.13875   0.14784   0.15579   0.16460   0.16944
 Alpha virt. eigenvalues --    0.17480   0.17785   0.17978   0.18612   0.19304
 Alpha virt. eigenvalues --    0.19787   0.21971   0.22703   0.23423   0.23826
 Alpha virt. eigenvalues --    0.23996   0.24714   0.25627   0.26370   0.26765
 Alpha virt. eigenvalues --    0.27484   0.28092   0.28405   0.29710   0.30259
 Alpha virt. eigenvalues --    0.31538   0.31930   0.32275   0.33432   0.34012
 Alpha virt. eigenvalues --    0.34706   0.35690   0.36760   0.37507   0.38615
 Alpha virt. eigenvalues --    0.39669   0.40955   0.41427   0.41853   0.42436
 Alpha virt. eigenvalues --    0.43964   0.44930   0.45519   0.46163   0.46507
 Alpha virt. eigenvalues --    0.47277   0.47706   0.47906   0.48498   0.49093
 Alpha virt. eigenvalues --    0.49674   0.50579   0.51237   0.51298   0.51596
 Alpha virt. eigenvalues --    0.52254   0.52644   0.53243   0.53661   0.54218
 Alpha virt. eigenvalues --    0.54338   0.55157   0.55772   0.56553   0.58168
 Alpha virt. eigenvalues --    0.58384   0.59995   0.61138   0.61960   0.63214
 Alpha virt. eigenvalues --    0.64246   0.64984   0.66273   0.67018   0.67518
 Alpha virt. eigenvalues --    0.68776   0.69199   0.70388   0.70827   0.72052
 Alpha virt. eigenvalues --    0.72878   0.74989   0.75333   0.76184   0.77556
 Alpha virt. eigenvalues --    0.79106   0.80889   0.83653   0.86894   0.87597
 Alpha virt. eigenvalues --    0.92036   0.96238   1.02540   1.04382   1.21783
 Alpha virt. eigenvalues --    1.24082   1.27252   1.28071   1.28949   1.30141
 Alpha virt. eigenvalues --    1.31949   1.33278   1.34635   1.35239   1.36320
 Alpha virt. eigenvalues --    1.36978   1.37881   1.38476   1.38748   1.39381
 Alpha virt. eigenvalues --    1.39934   1.40080   1.40639   1.41356   1.42208
 Alpha virt. eigenvalues --    1.43300   1.43311   1.44253   1.45682   1.47175
 Alpha virt. eigenvalues --    1.48247   1.49383   1.49492   1.50192   1.50899
 Alpha virt. eigenvalues --    1.51402   1.52172   1.53103   1.55803   1.59140
 Alpha virt. eigenvalues --    1.59771   1.59934   1.61049   1.61731   1.62111
 Alpha virt. eigenvalues --    1.62541   1.62878   1.63247   1.64469   1.65647
 Alpha virt. eigenvalues --    1.66197   1.67005   1.67482   1.68073   1.68772
 Alpha virt. eigenvalues --    1.69013   1.69733   1.70380   1.70917   1.72526
 Alpha virt. eigenvalues --    1.74258   1.74612   1.75502   1.76466   1.78590
 Alpha virt. eigenvalues --    1.81650   1.82984   1.83648   1.85416   1.86447
 Alpha virt. eigenvalues --    1.86490   1.87947   1.88638   1.89163   1.90231
 Alpha virt. eigenvalues --    1.91294   1.94303   1.95032   1.98909   1.99747
 Alpha virt. eigenvalues --    2.01632   2.03789   2.05821   2.06881   2.09368
 Alpha virt. eigenvalues --    2.09917   2.11325   2.15803   2.17483   2.19517
 Alpha virt. eigenvalues --    2.20608   2.21123   2.22167   2.22884   2.26381
 Alpha virt. eigenvalues --    2.26759   2.27267   2.29098   2.30848   2.32082
 Alpha virt. eigenvalues --    2.33316   2.34386   2.36870   2.37595   2.38879
 Alpha virt. eigenvalues --    2.39556   2.40206   2.41340   2.42703   2.45063
 Alpha virt. eigenvalues --    2.45467   2.47034   2.48686   2.49346   2.51184
 Alpha virt. eigenvalues --    2.52371   2.53769   2.54443   2.56351   2.57207
 Alpha virt. eigenvalues --    2.58609   2.60890   2.61753   2.62250   2.63389
 Alpha virt. eigenvalues --    2.64723   2.65195   2.66602   2.67261   2.68413
 Alpha virt. eigenvalues --    2.71359   2.71811   2.74007   2.74444   2.75517
 Alpha virt. eigenvalues --    2.76361   2.77344   2.77971   2.78245   2.78861
 Alpha virt. eigenvalues --    2.80732   2.81226   2.83237   2.83649   2.85081
 Alpha virt. eigenvalues --    2.85571   2.86221   2.88624   2.89005   2.92178
 Alpha virt. eigenvalues --    2.97063   2.98478   3.01141   3.07085   3.10601
 Alpha virt. eigenvalues --    3.12019   3.13655   3.18163   3.19417   3.21373
 Alpha virt. eigenvalues --    3.22288   3.23072   3.24926   3.25990   3.26311
 Alpha virt. eigenvalues --    3.29480   3.30366   3.32060   3.34778   3.36422
 Alpha virt. eigenvalues --    3.38230   3.38580   3.39040   3.39333   3.41418
 Alpha virt. eigenvalues --    3.41850   3.43526   3.44611   3.47544   3.48126
 Alpha virt. eigenvalues --    3.49849   3.50266   3.56168   3.58321   3.59758
 Alpha virt. eigenvalues --    3.61500   3.90967   4.00811   4.32751   4.35896
 Alpha virt. eigenvalues --   21.68744  21.80873  22.07631  22.09895  22.11301
 Alpha virt. eigenvalues --   22.14434  22.14804  22.17058  22.18718  22.25013
 Alpha virt. eigenvalues --   22.26931  31.91154  43.64104  43.66969
          Condensed to atoms (all electrons):
               1          2          3          4          5          6
     1  O    7.932056   0.000000  -0.000159   0.000019   0.018665   0.007678
     2  O    0.000000   7.987125   0.000348   0.000008  -0.191533   0.001434
     3  N   -0.000159   0.000348   6.350172   0.367543  -0.119268   0.330969
     4  H    0.000019   0.000008   0.367543   0.413296   0.015827  -0.045309
     5  C    0.018665  -0.191533  -0.119268   0.015827   7.186472  -0.081511
     6  C    0.007678   0.001434   0.330969  -0.045309  -0.081511   5.541948
     7  C   -0.000001  -0.051581   0.394284  -0.035680   0.487296  -0.133927
     8  C   -0.000819   0.695414   0.004153  -0.000950  -0.380088   0.035728
     9  C   -0.000501   0.029025   0.017797   0.000361  -0.746797  -0.038388
    10  H    0.007286   0.000018  -0.001078   0.000025  -0.101629   0.028975
    11  H    0.009272   0.000095   0.003010   0.000040  -0.084685  -0.017694
    12  C   -0.232382  -0.003439  -0.086956   0.014437   0.201807  -0.028849
    13  C    0.715992  -0.000012   0.001574   0.000587   0.084219   0.106101
    14  C   -0.000007  -0.006662  -0.032420  -0.010723  -0.086325   0.010132
    15  H   -0.000000   0.004093   0.004659   0.002410   0.022339   0.006281
    16  H    0.000000   0.002437  -0.000785   0.000808  -0.004817  -0.001443
    17  H   -0.000000   0.004198  -0.001694   0.000904  -0.010576  -0.001104
    18  C    0.000315  -0.097297  -0.000490   0.000021  -0.241325  -0.000153
    19  H    0.000001   0.006833   0.000009  -0.000001   0.023835   0.000010
    20  H    0.000216   0.004373   0.000103   0.000001   0.045769  -0.001244
    21  H   -0.000010   0.000645   0.000011  -0.000001   0.001242   0.000168
    22  C   -0.105991   0.000000  -0.000266   0.000116   0.003179  -0.024818
    23  H    0.001454   0.000000   0.000030  -0.000010  -0.000012   0.006951
    24  H    0.005200  -0.000000   0.000255  -0.000057  -0.000723  -0.022365
    25  H    0.006472   0.000000   0.000018  -0.000002  -0.000111  -0.000896
    26  C    0.000633   0.000011  -0.025135  -0.007040   0.000809   0.200073
    27  H   -0.000054  -0.000000  -0.002258   0.000517   0.000357  -0.032116
    28  H   -0.000202  -0.000000   0.000517   0.000687   0.000146  -0.050818
    29  H    0.000021   0.000000   0.002256   0.002339  -0.000288  -0.046781
               7          8          9         10         11         12
     1  O   -0.000001  -0.000819  -0.000501   0.007286   0.009272  -0.232382
     2  O   -0.051581   0.695414   0.029025   0.000018   0.000095  -0.003439
     3  N    0.394284   0.004153   0.017797  -0.001078   0.003010  -0.086956
     4  H   -0.035680  -0.000950   0.000361   0.000025   0.000040   0.014437
     5  C    0.487296  -0.380088  -0.746797  -0.101629  -0.084685   0.201807
     6  C   -0.133927   0.035728  -0.038388   0.028975  -0.017694  -0.028849
     7  C    5.428422  -0.253265  -0.236373   0.014243  -0.005552   0.030280
     8  C   -0.253265   5.445830   0.244424  -0.010107   0.000681  -0.057727
     9  C   -0.236373   0.244424   6.423443   0.514991   0.454158  -0.157108
    10  H    0.014243  -0.010107   0.514991   0.546318  -0.053141  -0.104034
    11  H   -0.005552   0.000681   0.454158  -0.053141   0.575295  -0.017823
    12  C    0.030280  -0.057727  -0.157108  -0.104034  -0.017823   7.381747
    13  C    0.022327  -0.010726  -0.225621   0.000072  -0.010348  -0.547918
    14  C    0.296889  -0.031498   0.002953   0.000314  -0.000485   0.001847
    15  H   -0.086885   0.005307   0.001032  -0.000002   0.000033  -0.001755
    16  H   -0.023522  -0.006315  -0.000226  -0.000055   0.000163   0.000304
    17  H   -0.019415  -0.001567   0.001034   0.000066  -0.000059   0.000149
    18  C   -0.002687   0.327076  -0.000303   0.007376  -0.015719   0.000894
    19  H    0.000114  -0.053644  -0.002524   0.000566   0.000186  -0.000129
    20  H    0.004726  -0.073967  -0.006905  -0.008152   0.003213   0.006662
    21  H   -0.000453  -0.023931  -0.009515  -0.000263   0.000668  -0.002134
    22  C    0.000148  -0.000053   0.010261  -0.002052   0.004150  -0.248331
    23  H   -0.000010   0.000001  -0.001882  -0.000141   0.000177  -0.010455
    24  H   -0.000037   0.000015   0.002113   0.000151  -0.000259   0.065745
    25  H    0.000012   0.000001   0.000392   0.000010  -0.000129   0.018377
    26  C    0.002600   0.000904   0.020678   0.000197  -0.000719  -0.084665
    27  H   -0.000804  -0.000015  -0.000585   0.000034  -0.000002  -0.016707
    28  H   -0.000781   0.000000   0.000149   0.000013  -0.000087  -0.006830
    29  H    0.002842   0.000000  -0.000434  -0.000015   0.000073   0.022192
              13         14         15         16         17         18
     1  O    0.715992  -0.000007  -0.000000   0.000000  -0.000000   0.000315
     2  O   -0.000012  -0.006662   0.004093   0.002437   0.004198  -0.097297
     3  N    0.001574  -0.032420   0.004659  -0.000785  -0.001694  -0.000490
     4  H    0.000587  -0.010723   0.002410   0.000808   0.000904   0.000021
     5  C    0.084219  -0.086325   0.022339  -0.004817  -0.010576  -0.241325
     6  C    0.106101   0.010132   0.006281  -0.001443  -0.001104  -0.000153
     7  C    0.022327   0.296889  -0.086885  -0.023522  -0.019415  -0.002687
     8  C   -0.010726  -0.031498   0.005307  -0.006315  -0.001567   0.327076
     9  C   -0.225621   0.002953   0.001032  -0.000226   0.001034  -0.000303
    10  H    0.000072   0.000314  -0.000002  -0.000055   0.000066   0.007376
    11  H   -0.010348  -0.000485   0.000033   0.000163  -0.000059  -0.015719
    12  C   -0.547918   0.001847  -0.001755   0.000304   0.000149   0.000894
    13  C    5.648980   0.000160  -0.000044  -0.000006  -0.000004   0.001625
    14  C    0.000160   5.022233   0.389967   0.412955   0.408526   0.000701
    15  H   -0.000044   0.389967   0.581206  -0.027158  -0.025537   0.000214
    16  H   -0.000006   0.412955  -0.027158   0.509581  -0.025844  -0.000163
    17  H   -0.000004   0.408526  -0.025537  -0.025844   0.504707   0.000161
    18  C    0.001625   0.000701   0.000214  -0.000163   0.000161   5.291556
    19  H   -0.000012   0.000028  -0.000004   0.000040  -0.000040   0.397442
    20  H    0.001071   0.000120  -0.000014  -0.000026  -0.000003   0.380652
    21  H   -0.000159  -0.000166  -0.000005   0.000008  -0.000009   0.401189
    22  C    0.263108  -0.000004   0.000002   0.000000  -0.000000   0.000024
    23  H   -0.021573  -0.000001   0.000000  -0.000000   0.000000  -0.000001
    24  H   -0.101541   0.000003   0.000000  -0.000000   0.000000   0.000000
    25  H   -0.031766   0.000000   0.000000  -0.000000  -0.000000  -0.000000
    26  C   -0.053015   0.000304   0.000350  -0.000009  -0.000044   0.000002
    27  H    0.006677  -0.000080  -0.000008   0.000003  -0.000004  -0.000000
    28  H   -0.001111   0.000033  -0.000006  -0.000002   0.000001   0.000000
    29  H   -0.001552  -0.000075   0.000101  -0.000001  -0.000001  -0.000000
              19         20         21         22         23         24
     1  O    0.000001   0.000216  -0.000010  -0.105991   0.001454   0.005200
     2  O    0.006833   0.004373   0.000645   0.000000   0.000000  -0.000000
     3  N    0.000009   0.000103   0.000011  -0.000266   0.000030   0.000255
     4  H   -0.000001   0.000001  -0.000001   0.000116  -0.000010  -0.000057
     5  C    0.023835   0.045769   0.001242   0.003179  -0.000012  -0.000723
     6  C    0.000010  -0.001244   0.000168  -0.024818   0.006951  -0.022365
     7  C    0.000114   0.004726  -0.000453   0.000148  -0.000010  -0.000037
     8  C   -0.053644  -0.073967  -0.023931  -0.000053   0.000001   0.000015
     9  C   -0.002524  -0.006905  -0.009515   0.010261  -0.001882   0.002113
    10  H    0.000566  -0.008152  -0.000263  -0.002052  -0.000141   0.000151
    11  H    0.000186   0.003213   0.000668   0.004150   0.000177  -0.000259
    12  C   -0.000129   0.006662  -0.002134  -0.248331  -0.010455   0.065745
    13  C   -0.000012   0.001071  -0.000159   0.263108  -0.021573  -0.101541
    14  C    0.000028   0.000120  -0.000166  -0.000004  -0.000001   0.000003
    15  H   -0.000004  -0.000014  -0.000005   0.000002   0.000000   0.000000
    16  H    0.000040  -0.000026   0.000008   0.000000  -0.000000  -0.000000
    17  H   -0.000040  -0.000003  -0.000009  -0.000000   0.000000   0.000000
    18  C    0.397442   0.380652   0.401189   0.000024  -0.000001   0.000000
    19  H    0.512505  -0.025452  -0.010730  -0.000000   0.000000   0.000000
    20  H   -0.025452   0.536917  -0.021825   0.000042  -0.000000  -0.000001
    21  H   -0.010730  -0.021825   0.491302  -0.000010   0.000000   0.000000
    22  C   -0.000000   0.000042  -0.000010   5.450052   0.399190   0.394945
    23  H    0.000000  -0.000000   0.000000   0.399190   0.498159  -0.028142
    24  H    0.000000  -0.000001   0.000000   0.394945  -0.028142   0.551685
    25  H   -0.000000  -0.000001   0.000000   0.380028  -0.008337  -0.022304
    26  C    0.000000  -0.000017   0.000002  -0.036339  -0.008809   0.015966
    27  H    0.000000   0.000000  -0.000000  -0.010488   0.000773  -0.002016
    28  H   -0.000000  -0.000000   0.000000   0.002441   0.000287  -0.006277
    29  H    0.000000   0.000000  -0.000000   0.002134   0.000149   0.000544
              25         26         27         28         29
     1  O    0.006472   0.000633  -0.000054  -0.000202   0.000021
     2  O    0.000000   0.000011  -0.000000  -0.000000   0.000000
     3  N    0.000018  -0.025135  -0.002258   0.000517   0.002256
     4  H   -0.000002  -0.007040   0.000517   0.000687   0.002339
     5  C   -0.000111   0.000809   0.000357   0.000146  -0.000288
     6  C   -0.000896   0.200073  -0.032116  -0.050818  -0.046781
     7  C    0.000012   0.002600  -0.000804  -0.000781   0.002842
     8  C    0.000001   0.000904  -0.000015   0.000000   0.000000
     9  C    0.000392   0.020678  -0.000585   0.000149  -0.000434
    10  H    0.000010   0.000197   0.000034   0.000013  -0.000015
    11  H   -0.000129  -0.000719  -0.000002  -0.000087   0.000073
    12  C    0.018377  -0.084665  -0.016707  -0.006830   0.022192
    13  C   -0.031766  -0.053015   0.006677  -0.001111  -0.001552
    14  C    0.000000   0.000304  -0.000080   0.000033  -0.000075
    15  H    0.000000   0.000350  -0.000008  -0.000006   0.000101
    16  H   -0.000000  -0.000009   0.000003  -0.000002  -0.000001
    17  H   -0.000000  -0.000044  -0.000004   0.000001  -0.000001
    18  C   -0.000000   0.000002  -0.000000   0.000000  -0.000000
    19  H   -0.000000   0.000000   0.000000  -0.000000   0.000000
    20  H   -0.000001  -0.000017   0.000000  -0.000000   0.000000
    21  H    0.000000   0.000002  -0.000000   0.000000  -0.000000
    22  C    0.380028  -0.036339  -0.010488   0.002441   0.002134
    23  H   -0.008337  -0.008809   0.000773   0.000287   0.000149
    24  H   -0.022304   0.015966  -0.002016  -0.006277   0.000544
    25  H    0.494595   0.002053   0.000132   0.000483  -0.000033
    26  C    0.002053   5.226652   0.424783   0.434748   0.386079
    27  H    0.000132   0.424783   0.484868  -0.029311  -0.016273
    28  H    0.000483   0.434748  -0.029311   0.505186  -0.023935
    29  H   -0.000033   0.386079  -0.016273  -0.023935   0.516333
 Mulliken charges:
               1
     1  O   -0.365155
     2  O   -0.385534
     3  N   -0.207199
     4  H    0.279828
     5  C   -0.042276
     6  C    0.250969
     7  C    0.166795
     8  C    0.145138
     9  C   -0.295648
    10  H    0.160013
    11  H    0.155487
    12  C   -0.137199
    13  C    0.152916
    14  C   -0.378720
    15  H    0.123425
    16  H    0.164071
    17  H    0.166154
    18  C   -0.451107
    19  H    0.150967
    20  H    0.153741
    21  H    0.173977
    22  C   -0.481467
    23  H    0.172201
    24  H    0.147099
    25  H    0.161005
    26  C   -0.501051
    27  H    0.192578
    28  H    0.174666
    29  H    0.154326
 Sum of Mulliken charges =  -0.00000
 Mulliken charges with hydrogens summed into heavy atoms:
               1
     1  O   -0.365155
     2  O   -0.385534
     3  N    0.072629
     5  C   -0.042276
     6  C    0.250969
     7  C    0.166795
     8  C    0.145138
     9  C    0.019852
    12  C   -0.137199
    13  C    0.152916
    14  C    0.074930
    18  C    0.027578
    22  C   -0.001161
    26  C    0.020519
 Electronic spatial extent (au):  <R**2>=           3214.6678
 Charge=             -0.0000 electrons
 Dipole moment (field-independent basis, Debye):
    X=              4.0565    Y=              7.7039    Z=              0.2878  Tot=              8.7113
 Quadrupole moment (field-independent basis, Debye-Ang):
   XX=            -99.2378   YY=            -78.1163   ZZ=            -84.9271
   XY=             12.1751   XZ=              3.4754   YZ=             -2.4694
 Traceless Quadrupole moment (field-independent basis, Debye-Ang):
   XX=            -11.8107   YY=              9.3107   ZZ=              2.5000
   XY=             12.1751   XZ=              3.4754   YZ=             -2.4694
 Octapole moment (field-independent basis, Debye-Ang**2):
  XXX=            112.2163  YYY=             65.5699  ZZZ=              0.8076  XYY=            -34.7239
  XXY=             33.1106  XXZ=             -2.7752  XZZ=             -0.0502  YZZ=             -1.2108
  YYZ=              5.0159  XYZ=             -5.2283
 Hexadecapole moment (field-independent basis, Debye-Ang**3):
 XXXX=          -3095.3960 YYYY=          -1303.1807 ZZZZ=           -139.6703 XXXY=             29.9580
 XXXZ=             35.8826 YYYX=             87.1352 YYYZ=            -18.6557 ZZZX=             -3.8405
 ZZZY=              1.1336 XXYY=           -695.8203 XXZZ=           -479.0877 YYZZ=           -246.5624
 XXYZ=            -11.5123 YYXZ=             10.8417 ZZXY=              0.5446
 N-N= 8.980488118512D+02 E-N=-3.271910008953D+03  KE= 6.305537685334D+02
 No NMR shielding tensors so no spin-rotation constants.
 Leave Link  601 at Fri Jan 23 22:29:19 2026, MaxMem=  2147483648 cpu:               1.8 elap:               0.1
 (Enter /data/home/wyx/g16/l9999.exe)
 1\1\GINC-CN012\SP\RCAM-B3LYP\TZVP\C11H15N1O2\WYX\23-Jan-2026\0\\#p CAM
 -B3LYP TZVP em=gd3bj scrf=(Solvent=TetraHydroFuran,NonEquilibrium=Read
 ) Geom=Check Guess=Read\\Title Card Required\\0,1\O,0,2.840355,-1.5755
 66,0.006876\O,0,-3.430456,-1.65648,-0.200573\N,0,-0.673261,1.51926,-0.
 136562\H,0,-0.985797,2.480907,-0.184817\C,0,-1.251081,-0.76442,-0.1950
 08\C,0,0.673027,1.344959,-0.001164\C,0,-1.646543,0.587748,-0.223477\C,
 0,-2.208444,-1.851824,-0.20537\C,0,0.187435,-1.075242,-0.146137\H,0,0.
 389393,-1.869159,0.584973\H,0,0.483471,-1.587317,-1.083615\C,0,1.14633
 6,0.026389,0.056495\C,0,2.518909,-0.404196,0.25469\C,0,-3.037078,1.109
 507,-0.363395\H,0,-3.030155,2.198859,-0.420899\H,0,-3.51566,0.716076,-
 1.258921\H,0,-3.660503,0.807978,0.476504\C,0,-1.700512,-3.276547,-0.18
 2859\H,0,-2.493575,-3.925694,-0.546499\H,0,-0.806587,-3.431445,-0.7840
 02\H,0,-1.464503,-3.572706,0.842713\C,0,3.575614,0.523342,0.805827\H,0
 ,4.079,1.058186,-0.002651\H,0,3.181872,1.256761,1.504771\H,0,4.320435,
 -0.088933,1.310142\C,0,1.471434,2.607239,0.023709\H,0,1.768788,2.89598
 5,1.034213\H,0,2.376132,2.51428,-0.572765\H,0,0.89194,3.43205,-0.39219
 4\\Version=ES64L-G16RevA.03\State=1-A\HF=-633.3166883\RMSD=9.335e-09\D
 ipole=0.470291,3.3912118,0.1579268\Quadrupole=-13.2299963,10.8740332,2
 .3559631,2.1332932,1.3546095,-0.6507231\PG=C01 [X(C11H15N1O2)]\\@


 IF THE FACTS DO NOT CONFORM TO THE THEORY, THEY MUST BE DISPOSED OF.
 Job cpu time:       0 days  0 hours 11 minutes 41.1 seconds.
 Elapsed time:       0 days  0 hours  0 minutes 44.7 seconds.
 File lengths (MBytes):  RWF=    339 Int=      0 D2E=      0 Chk=     67 Scr=      1
 Normal termination of Gaussian 16 at Fri Jan 23 22:29:20 2026.
