 Entering Gaussian System, Link 0=g16
 Input=DDL-S1-cLR-gs-12.gjf
 Output=DDL-S1-cLR-gs-12.log
 Initial command:
 /data/home/wyx/g16/l1.exe "/scr/tmp/wyx/13106/Gau-1987843.inp" -scrdir="/scr/tmp/wyx/13106/"
 Entering Link 1 = /data/home/wyx/g16/l1.exe PID=   1987844.
  
 Copyright (c) 1988,1990,1992,1993,1995,1998,2003,2009,2016,
            Gaussian, Inc.  All Rights Reserved.
  
 This is part of the Gaussian(R) 16 program.  It is based on
 the Gaussian(R) 09 system (copyright 2009, Gaussian, Inc.),
 the Gaussian(R) 03 system (copyright 2003, Gaussian, Inc.),
 the Gaussian(R) 98 system (copyright 1998, Gaussian, Inc.),
 the Gaussian(R) 94 system (copyright 1995, Gaussian, Inc.),
 the Gaussian 92(TM) system (copyright 1992, Gaussian, Inc.),
 the Gaussian 90(TM) system (copyright 1990, Gaussian, Inc.),
 the Gaussian 88(TM) system (copyright 1988, Gaussian, Inc.),
 the Gaussian 86(TM) system (copyright 1986, Carnegie Mellon
 University), and the Gaussian 82(TM) system (copyright 1983,
 Carnegie Mellon University). Gaussian is a federally registered
 trademark of Gaussian, Inc.
  
 This software contains proprietary and confidential information,
 including trade secrets, belonging to Gaussian, Inc.
  
 This software is provided under written license and may be
 used, copied, transmitted, or stored only in accord with that
 written license.
  
 The following legend is applicable only to US Government
 contracts under FAR:
  
                    RESTRICTED RIGHTS LEGEND
  
 Use, reproduction and disclosure by the US Government is
 subject to restrictions as set forth in subparagraphs (a)
 and (c) of the Commercial Computer Software - Restricted
 Rights clause in FAR 52.227-19.
  
 Gaussian, Inc.
 340 Quinnipiac St., Bldg. 40, Wallingford CT 06492
  
  
 ---------------------------------------------------------------
 Warning -- This program may not be used in any manner that
 competes with the business of Gaussian, Inc. or will provide
 assistance to any competitor of Gaussian, Inc.  The licensee
 of this program is prohibited from giving any competitor of
 Gaussian, Inc. access to this program.  By using this program,
 the user acknowledges that Gaussian, Inc. is engaged in the
 business of creating and licensing software in the field of
 computational chemistry and represents and warrants to the
 licensee that it is not a competitor of Gaussian, Inc. and that
 it will not use this program in any manner prohibited above.
 ---------------------------------------------------------------
  

 Cite this work as:
 Gaussian 16, Revision A.03,
 M. J. Frisch, G. W. Trucks, H. B. Schlegel, G. E. Scuseria, 
 M. A. Robb, J. R. Cheeseman, G. Scalmani, V. Barone, 
 G. A. Petersson, H. Nakatsuji, X. Li, M. Caricato, A. V. Marenich, 
 J. Bloino, B. G. Janesko, R. Gomperts, B. Mennucci, H. P. Hratchian, 
 J. V. Ortiz, A. F. Izmaylov, J. L. Sonnenberg, D. Williams-Young, 
 F. Ding, F. Lipparini, F. Egidi, J. Goings, B. Peng, A. Petrone, 
 T. Henderson, D. Ranasinghe, V. G. Zakrzewski, J. Gao, N. Rega, 
 G. Zheng, W. Liang, M. Hada, M. Ehara, K. Toyota, R. Fukuda, 
 J. Hasegawa, M. Ishida, T. Nakajima, Y. Honda, O. Kitao, H. Nakai, 
 T. Vreven, K. Throssell, J. A. Montgomery, Jr., J. E. Peralta, 
 F. Ogliaro, M. J. Bearpark, J. J. Heyd, E. N. Brothers, K. N. Kudin, 
 V. N. Staroverov, T. A. Keith, R. Kobayashi, J. Normand, 
 K. Raghavachari, A. P. Rendell, J. C. Burant, S. S. Iyengar, 
 J. Tomasi, M. Cossi, J. M. Millam, M. Klene, C. Adamo, R. Cammi, 
 J. W. Ochterski, R. L. Martin, K. Morokuma, O. Farkas, 
 J. B. Foresman, and D. J. Fox, Gaussian, Inc., Wallingford CT, 2016.
 
 ******************************************
 Gaussian 16:  ES64L-G16RevA.03 25-Dec-2016
                23-Jan-2026 
 ******************************************
 %nprocshared=16
 Will use up to   16 processors via shared memory.
 %mem=16GB
 %oldchk=DDL-S1-cLR-12.chk
 %chk=DDL-S1-cLR-gs-12.chk
 Copying data from "DDL-S1-cLR-12.chk" to current chk file "DDL-S1-cLR-gs-12.chk"
 IOpt=  2 FromEx=T IUOpen= 4 IOptOp= 5 NList=   0 IFRang= 0 IUIn= 4 IUOut= 2.
 ----------------------------------------------------------------------
 #p CAM-B3LYP TZVP em=gd3bj scrf=(Solvent=TetraHydroFuran,NonEquilibriu
 m=Read) Geom=Check Guess=Read
 ----------------------------------------------------------------------
 1/29=2,38=1,172=1/1;
 2/12=2,40=1/2;
 3/5=19,7=101,11=2,14=-4,25=1,30=1,70=6002201,72=20,74=-40,116=-2,124=41/1,2,3;
 4/5=1/1;
 5/5=2,38=6,53=20/2;
 6/7=2,8=2,9=2,10=2,28=1/1;
 99/5=1,9=1/99;
 Leave Link    1 at Fri Jan 23 22:49:26 2026, MaxMem=  2147483648 cpu:               0.8 elap:               0.2
 (Enter /data/home/wyx/g16/l101.exe)
 -------------------
 Title Card Required
 -------------------
 Structure from the checkpoint file:  "DDL-S1-cLR-gs-12.chk"
 Charge =  0 Multiplicity = 1
 Z-Matrix found in chk file.
 O,0,2.836357,-1.566381,0.130446
 O,0,-3.421792,-1.626118,0.035495
 N,0,-0.64043,1.511966,-0.332319
 H,0,-0.949967,2.46982,-0.385617
 C,0,-1.239668,-0.758331,-0.219287
 C,0,0.697053,1.305756,-0.090736
 C,0,-1.616079,0.552338,-0.282568
 C,0,-2.221687,-1.831505,-0.115229
 C,0,0.215078,-1.106264,-0.323646
 H,0,0.456719,-1.94429,0.329808
 H,0,0.444809,-1.485486,-1.330139
 C,0,1.150681,0.02331,-0.003572
 C,0,2.513802,-0.395236,0.315459
 C,0,-3.00558,1.091293,-0.307278
 H,0,-3.008114,2.152041,-0.552675
 H,0,-3.620786,0.561461,-1.026322
 H,0,-3.487641,0.96226,0.658872
 C,0,-1.727244,-3.251228,-0.189604
 H,0,-2.570383,-3.922728,-0.309579
 H,0,-1.027384,-3.40283,-1.007673
 H,0,-1.203902,-3.520473,0.727154
 C,0,3.538268,0.540583,0.909717
 H,0,4.051458,1.093172,0.120607
 H,0,3.109912,1.258259,1.604516
 H,0,4.278866,-0.066402,1.425225
 C,0,1.46782,2.580997,0.032041
 H,0,1.556226,2.893582,1.072522
 H,0,2.465013,2.499853,-0.381636
 H,0,0.958596,3.38058,-0.503982
 Recover connectivity data from disk.
 ITRead=  0  0  0  0  0  0  0  0  0  0  0  0  0  0  0  0  0  0  0  0
 ITRead=  0  0  0  0  0  0  0  0  0
 MicOpt= -1 -1 -1 -1 -1 -1 -1 -1 -1 -1 -1 -1 -1 -1 -1 -1 -1 -1 -1 -1
 MicOpt= -1 -1 -1 -1 -1 -1 -1 -1 -1
 NAtoms=     29 NQM=       29 NQMF=       0 NMMI=      0 NMMIF=      0
                NMic=       0 NMicF=      0.
                    Isotopes and Nuclear Properties:
 (Nuclear quadrupole moments (NQMom) in fm**2, nuclear magnetic moments (NMagM)
  in nuclear magnetons)

  Atom         1           2           3           4           5           6           7           8           9          10
 IAtWgt=          16          16          14           1          12          12          12          12          12           1
 AtmWgt=  15.9949146  15.9949146  14.0030740   1.0078250  12.0000000  12.0000000  12.0000000  12.0000000  12.0000000   1.0078250
 NucSpn=           0           0           2           1           0           0           0           0           0           1
 AtZEff=   5.6000000   5.6000000   4.5500000   1.0000000   3.6000000   3.6000000   3.6000000   3.6000000   3.6000000   1.0000000
 NQMom=    0.0000000   0.0000000   2.0440000   0.0000000   0.0000000   0.0000000   0.0000000   0.0000000   0.0000000   0.0000000
 NMagM=    0.0000000   0.0000000   0.4037610   2.7928460   0.0000000   0.0000000   0.0000000   0.0000000   0.0000000   2.7928460
 AtZNuc=   8.0000000   8.0000000   7.0000000   1.0000000   6.0000000   6.0000000   6.0000000   6.0000000   6.0000000   1.0000000

  Atom        11          12          13          14          15          16          17          18          19          20
 IAtWgt=           1          12          12          12           1           1           1          12           1           1
 AtmWgt=   1.0078250  12.0000000  12.0000000  12.0000000   1.0078250   1.0078250   1.0078250  12.0000000   1.0078250   1.0078250
 NucSpn=           1           0           0           0           1           1           1           0           1           1
 AtZEff=   1.0000000   3.6000000   3.6000000   3.6000000   1.0000000   1.0000000   1.0000000   3.6000000   1.0000000   1.0000000
 NQMom=    0.0000000   0.0000000   0.0000000   0.0000000   0.0000000   0.0000000   0.0000000   0.0000000   0.0000000   0.0000000
 NMagM=    2.7928460   0.0000000   0.0000000   0.0000000   2.7928460   2.7928460   2.7928460   0.0000000   2.7928460   2.7928460
 AtZNuc=   1.0000000   6.0000000   6.0000000   6.0000000   1.0000000   1.0000000   1.0000000   6.0000000   1.0000000   1.0000000

  Atom        21          22          23          24          25          26          27          28          29
 IAtWgt=           1          12           1           1           1          12           1           1           1
 AtmWgt=   1.0078250  12.0000000   1.0078250   1.0078250   1.0078250  12.0000000   1.0078250   1.0078250   1.0078250
 NucSpn=           1           0           1           1           1           0           1           1           1
 AtZEff=   1.0000000   3.6000000   1.0000000   1.0000000   1.0000000   3.6000000   1.0000000   1.0000000   1.0000000
 NQMom=    0.0000000   0.0000000   0.0000000   0.0000000   0.0000000   0.0000000   0.0000000   0.0000000   0.0000000
 NMagM=    2.7928460   0.0000000   2.7928460   2.7928460   2.7928460   0.0000000   2.7928460   2.7928460   2.7928460
 AtZNuc=   1.0000000   6.0000000   1.0000000   1.0000000   1.0000000   6.0000000   1.0000000   1.0000000   1.0000000
 Leave Link  101 at Fri Jan 23 22:49:29 2026, MaxMem=  2147483648 cpu:               0.9 elap:               0.1
 (Enter /data/home/wyx/g16/l202.exe)
                          Input orientation:                          
 ---------------------------------------------------------------------
 Center     Atomic      Atomic             Coordinates (Angstroms)
 Number     Number       Type             X           Y           Z
 ---------------------------------------------------------------------
      1          8           0        2.836357   -1.566381    0.130446
      2          8           0       -3.421792   -1.626118    0.035495
      3          7           0       -0.640430    1.511966   -0.332319
      4          1           0       -0.949967    2.469820   -0.385617
      5          6           0       -1.239668   -0.758331   -0.219287
      6          6           0        0.697053    1.305756   -0.090736
      7          6           0       -1.616079    0.552338   -0.282568
      8          6           0       -2.221687   -1.831505   -0.115229
      9          6           0        0.215078   -1.106264   -0.323646
     10          1           0        0.456719   -1.944290    0.329808
     11          1           0        0.444809   -1.485486   -1.330139
     12          6           0        1.150681    0.023310   -0.003572
     13          6           0        2.513802   -0.395236    0.315459
     14          6           0       -3.005580    1.091293   -0.307278
     15          1           0       -3.008114    2.152041   -0.552675
     16          1           0       -3.620786    0.561461   -1.026322
     17          1           0       -3.487641    0.962260    0.658872
     18          6           0       -1.727244   -3.251228   -0.189604
     19          1           0       -2.570383   -3.922728   -0.309579
     20          1           0       -1.027384   -3.402830   -1.007673
     21          1           0       -1.203902   -3.520473    0.727154
     22          6           0        3.538268    0.540583    0.909717
     23          1           0        4.051458    1.093172    0.120607
     24          1           0        3.109912    1.258259    1.604516
     25          1           0        4.278866   -0.066402    1.425225
     26          6           0        1.467820    2.580997    0.032041
     27          1           0        1.556226    2.893582    1.072522
     28          1           0        2.465013    2.499853   -0.381636
     29          1           0        0.958596    3.380580   -0.503982
 ---------------------------------------------------------------------
                    Distance matrix (angstroms):
                    1          2          3          4          5
     1  O    0.000000
     2  O    6.259154   0.000000
     3  N    4.666735   4.209374   0.000000
     4  H    5.558191   4.802495   1.008037   0.000000
     5  C    4.170041   2.362125   2.350768   3.245389   0.000000
     6  C    3.588135   5.057342   1.374680   2.038302   2.833349
     7  C    4.948104   2.847356   1.369398   2.032501   1.365116
     8  C    5.070942   1.226847   3.704902   4.493526   1.458387
     9  C    2.699817   3.691349   2.754469   3.761588   1.499411
    10  H    2.417693   3.902653   3.686171   4.687746   2.141432
    11  H    2.803454   4.103089   3.340375   4.299066   2.144810
    12  C    2.320901   4.861034   2.352074   3.247167   2.524136
    13  C    1.228760   6.068338   3.742488   4.549478   3.808717
    14  C    6.432967   2.770388   2.402400   2.476291   2.558769
    15  H    6.960687   3.845980   2.462556   2.089225   3.421814
    16  H    6.896414   2.439786   3.204313   3.344490   2.839521
    17  H    6.831267   2.663200   3.064514   3.131052   2.963947
    18  C    4.875202   2.358632   4.887694   5.776934   2.540304
    19  H    5.914290   2.473538   5.767247   6.595165   3.434001
    20  H    4.426777   3.158812   4.976048   5.906011   2.767669
    21  H    4.527497   2.997667   5.173531   6.098061   2.920010
    22  C    2.353559   7.341750   4.466291   5.054117   5.078435
    23  H    2.924002   7.953065   4.732266   5.212070   5.616013
    24  H    3.197860   7.310582   4.228565   4.680932   5.129497
    25  H    2.450963   7.978985   5.457076   6.087057   5.799776
    26  C    4.368446   6.450437   2.391716   2.456113   4.306364
    27  H    4.734714   6.803218   2.950888   2.930315   4.777265
    28  H    4.115141   7.200841   3.259161   3.415114   4.936272
    29  H    5.329250   6.674268   2.465374   2.118043   4.695104
                    6          7          8          9         10
     6  C    0.000000
     7  C    2.440291   0.000000
     8  C    4.285096   2.465253   0.000000
     9  C    2.470706   2.470988   2.550928   0.000000
    10  H    3.285942   3.302219   2.717469   1.089807   0.000000
    11  H    3.064438   3.081784   2.950582   1.099824   1.722227
    12  C    1.363101   2.830666   3.850412   1.501245   2.112859
    13  C    2.521695   4.279188   4.967214   2.489608   2.575144
    14  C    3.715155   1.490569   3.032181   3.898995   4.648457
    15  H    3.828557   2.137702   4.083928   4.588897   5.437258
    16  H    4.480293   2.138248   2.917851   4.241334   4.974326
    17  H    4.265157   2.134734   3.163383   4.353649   4.910630
    18  C    5.162663   3.806326   1.505197   2.896800   2.597609
    19  H    6.169366   4.575767   2.128984   3.961245   3.672381
    20  H    5.097572   4.063950   2.166074   2.699226   2.473612
    21  H    5.251196   4.216304   2.144320   2.991002   2.323768
    22  C    3.107877   5.290461   6.313034   3.908565   4.000854
    23  H    3.367772   5.707541   6.925439   4.444400   4.710848
    24  H    2.949241   5.137548   6.397665   4.205810   4.349785
    25  H    4.124359   6.168450   6.909832   4.544693   4.397182
    26  C    1.495124   3.704709   5.753636   3.910469   4.646419
    27  H    2.147682   4.169078   6.165211   4.443729   5.016527
    28  H    2.153177   4.523046   6.387237   4.250841   4.928469
    29  H    2.131683   3.831048   6.118101   4.551605   5.413070
                   11         12         13         14         15
    11  H    0.000000
    12  C    2.129437   0.000000
    13  C    2.859610   1.461185   0.000000
    14  C    4.426197   4.302015   5.749882   0.000000
    15  H    5.075306   4.704103   6.142787   1.088766   0.000000
    16  H    4.561947   4.909432   6.352072   1.084539   1.769083
    17  H    5.041011   4.778545   6.162633   1.087418   1.764475
    18  C    3.022661   4.363446   5.137923   4.528298   5.564869
    19  H    4.009124   5.432419   6.219551   5.032873   6.095369
    20  H    2.438759   4.182179   4.830766   4.959935   5.914973
    21  H    3.330447   4.316992   4.874210   5.058110   6.088560
    22  C    4.323355   2.608110   1.509447   6.678795   6.898587
    23  H    4.664982   3.094274   2.148886   7.069998   7.170221
    24  H    4.821111   2.819509   2.179693   6.409530   6.548478
    25  H    4.930094   3.440211   2.110726   7.576607   7.869794
    26  C    4.408897   2.577520   3.167391   4.727120   4.534301
    27  H    5.117056   3.092072   3.508051   5.095308   4.901464
    28  H    4.567692   2.829075   2.978231   5.649510   5.486834
    29  H    4.962369   3.399790   4.164965   4.581945   4.152887
                   16         17         18         19         20
    16  H    0.000000
    17  H    1.737310   0.000000
    18  C    4.338455   4.644609   0.000000
    19  H    4.661010   5.063829   1.084523   0.000000
    20  H    4.737266   5.280554   1.087209   1.771574   0.000000
    21  H    5.057489   5.031404   1.089415   1.761787   1.747748
    22  C    7.416248   7.043020   6.581182   7.663122   6.330250
    23  H    7.775699   7.559423   7.236259   8.318238   6.876168
    24  H    7.260105   6.671549   6.852183   7.922887   6.757699
    25  H    8.295107   7.871726   6.987428   8.049410   6.723618
    26  C    5.576071   5.250697   6.653751   7.663043   6.566067
    27  H    6.053543   5.416798   7.080454   8.087100   7.116675
    28  H    6.419496   6.235458   7.119468   8.161492   6.886975
    29  H    5.402871   5.193219   7.161944   8.113556   7.086076
                   21         22         23         24         25
    21  H    0.000000
    22  C    6.246093   0.000000
    23  H    7.019432   1.091519   0.000000
    24  H    6.497310   1.086873   1.765148   0.000000
    25  H    6.517565   1.087504   1.760214   1.775761   0.000000
    26  C    6.696956   3.036504   2.982726   2.630357   4.105078
    27  H    6.991258   3.080844   3.220839   2.317593   4.037162
    28  H    7.136853   2.580350   2.178946   2.429455   3.624979
    29  H    7.335982   4.088867   3.897197   3.684857   5.160205
                   26         27         28         29
    26  C    0.000000
    27  H    1.090012   0.000000
    28  H    1.082639   1.759401   0.000000
    29  H    1.089019   1.754906   1.749269   0.000000
 Stoichiometry    C11H15NO2
 Framework group  C1[X(C11H15NO2)]
 Deg. of freedom    81
 Full point group                 C1      NOp   1
 RotChk:  IX=0 Diff= 3.10D-16
 Largest Abelian subgroup         C1      NOp   1
 Largest concise Abelian subgroup C1      NOp   1
                         Standard orientation:                         
 ---------------------------------------------------------------------
 Center     Atomic      Atomic             Coordinates (Angstroms)
 Number     Number       Type             X           Y           Z
 ---------------------------------------------------------------------
      1          8           0        2.287754   -2.278959   -0.210026
      2          8           0       -3.600861   -0.248228    0.404268
      3          7           0        0.023794    1.801838   -0.210493
      4          1           0        0.051432    2.809493   -0.208151
      5          6           0       -1.290927   -0.142404   -0.078058
      6          6           0        1.230594    1.148892   -0.126578
      7          6           0       -1.208013    1.220171   -0.070616
      8          6           0       -2.561540   -0.831978    0.114095
      9          6           0       -0.056610   -0.947711   -0.354061
     10          1           0       -0.047561   -1.854763    0.249971
     11          1           0       -0.069724   -1.322762   -1.387879
     12          6           0        1.231865   -0.214184   -0.118461
     13          6           0        2.398847   -1.080013    0.035004
     14          6           0       -2.329758    2.191062    0.073803
     15          1           0       -1.999193    3.204591   -0.147328
     16          1           0       -3.155991    1.938616   -0.581815
     17          1           0       -2.728162    2.173961    1.085465
     18          6           0       -2.584428   -2.328487   -0.045769
     19          1           0       -3.612025   -2.673182   -0.083447
     20          1           0       -2.061903   -2.656564   -0.940954
     21          1           0       -2.093725   -2.809103    0.799834
     22          6           0        3.732587   -0.574307    0.528797
     23          1           0        4.320515   -0.179130   -0.301618
     24          1           0        3.642690    0.203448    1.282660
     25          1           0        4.272857   -1.421844    0.944072
     26          6           0        2.394145    2.085789   -0.065193
     27          1           0        2.686044    2.290334    0.964896
     28          1           0        3.259126    1.701711   -0.590929
     29          1           0        2.133342    3.038850   -0.523035
 ---------------------------------------------------------------------
 Rotational constants (GHZ):           1.0791047           0.4906983           0.3460501
 Leave Link  202 at Fri Jan 23 22:49:29 2026, MaxMem=  2147483648 cpu:               0.0 elap:               0.0
 (Enter /data/home/wyx/g16/l301.exe)
 Standard basis: TZVP (5D, 7F)
 Ernie: Thresh=  0.10000D-02 Tol=  0.10000D-05 Strict=F.
 There are   370 symmetry adapted cartesian basis functions of A   symmetry.
 There are   356 symmetry adapted basis functions of A   symmetry.
   356 basis functions,   610 primitive gaussians,   370 cartesian basis functions
    52 alpha electrons       52 beta electrons
       nuclear repulsion energy       900.7808118532 Hartrees.
 IExCor=20419 DFT=T Ex+Corr=CAM-B3LYP ExCW=0 ScaHFX=  1.000000
 ScaDFX=  1.000000  1.000000  1.000000  0.810000 ScalE2=  1.000000  1.000000
 IRadAn=      5 IRanWt=     -1 IRanGd=            0 ICorTp=0 IEmpDi=141
 HFx  wShort=  0.000000 wLong=  0.330000 cFull=  0.190000 cShort=  0.000000 cLong=  0.460000
 DFx  wShort=  0.000000 wLong=  0.330000 cFull=  0.190000 cShort=  0.000000 cLong=  0.460000
 NAtoms=   29 NActive=   29 NUniq=   29 SFac= 1.00D+00 NAtFMM=   60 NAOKFM=F Big=F
 Integral buffers will be    131072 words long.
 Raffenetti 2 integral format.
 Two-electron integral symmetry is turned on.
 R6Disp:  Grimme-D3(BJ) Dispersion energy=       -0.0261955096 Hartrees.
 Nuclear repulsion after empirical dispersion term =      900.7546163436 Hartrees.
 ------------------------------------------------------------------------------
 Polarizable Continuum Model (PCM)
 =================================
 Model                : PCM.
 Atomic radii         : UFF (Universal Force Field).
 Polarization charges : Total charges.
 Charge compensation  : None.
 Solution method      : On-the-fly selection.
 Cavity type          : Scaled VdW (van der Waals Surface) (Alpha=1.100).
 Cavity algorithm     : GePol (No added spheres)
                        Default sphere list used, NSphG=   29.
                        Lebedev-Laikov grids with approx.  5.0 points / Ang**2.
                        Smoothing algorithm: York/Karplus (Gamma=1.0000).
                        Polarization charges: spherical gaussians, with
                                              point-specific exponents (IZeta= 3).
                        Self-potential: point-specific (ISelfS= 7).
                        Self-field    : sphere-specific E.n sum rule (ISelfD= 2).
 Solvent              : TetraHydroFuran, Eps=   7.425700 Eps(inf)=   1.974025
 ------------------------------------------------------------------------------
 GePol: Number of generator spheres                  =      29
 GePol: Total number of spheres                      =      29
 GePol: Number of exposed spheres                    =      29 (100.00%)
 GePol: Number of points                             =    2108
 GePol: Average weight of points                     =       0.13
 GePol: Minimum weight of points                     =   0.40D-09
 GePol: Maximum weight of points                     =    0.20577
 GePol: Number of points with low weight             =     149
 GePol: Fraction of low-weight points (<1% of avg)   =       7.07%
 GePol: Cavity surface area                          =    268.496 Ang**2
 GePol: Cavity volume                                =    286.515 Ang**3
 Leave Link  301 at Fri Jan 23 22:49:29 2026, MaxMem=  2147483648 cpu:               0.6 elap:               0.0
 (Enter /data/home/wyx/g16/l302.exe)
 NPDir=0 NMtPBC=     1 NCelOv=     1 NCel=       1 NClECP=     1 NCelD=      1
         NCelK=      1 NCelE2=     1 NClLst=     1 CellRange=     0.0.
 One-electron integrals computed using PRISM.
 One-electron integral symmetry used in STVInt
 NBasis=   356 RedAO= T EigKep=  4.70D-05  NBF=   356
 NBsUse=   356 1.00D-06 EigRej= -1.00D+00 NBFU=   356
 Precomputing XC quadrature grid using
 IXCGrd= 4 IRadAn=           5 IRanWt=          -1 IRanGd=           0 AccXCQ= 0.00D+00.
 Generated NRdTot=       0 NPtTot=           0 NUsed=           0 NTot=          32
 NSgBfM=   366   366   366   366   366 MxSgAt=    29 MxSgA2=    29.
 Leave Link  302 at Fri Jan 23 22:49:30 2026, MaxMem=  2147483648 cpu:               3.2 elap:               0.2
 (Enter /data/home/wyx/g16/l303.exe)
 DipDrv:  MaxL=1.
 Leave Link  303 at Fri Jan 23 22:49:30 2026, MaxMem=  2147483648 cpu:               0.6 elap:               0.1
 (Enter /data/home/wyx/g16/l401.exe)
 Initial guess from the checkpoint file:  "DDL-S1-cLR-gs-12.chk"
 B after Tr=    -0.000000   -0.000000   -0.000000
         Rot=    1.000000    0.000000    0.000000   -0.000000 Ang=   0.00 deg.
 Guess basis will be translated and rotated to current coordinates.
 JPrj=2 DoOrth=T DoCkMO=T.
 Leave Link  401 at Fri Jan 23 22:49:30 2026, MaxMem=  2147483648 cpu:               2.3 elap:               0.2
 (Enter /data/home/wyx/g16/l502.exe)
 Integral symmetry usage will be decided dynamically.
 Closed shell SCF:
 Using DIIS extrapolation, IDIIS=  1040.
 NGot=  2147483648 LenX=  2147200095 LenY=  2147062754
 Requested convergence on RMS density matrix=1.00D-08 within 128 cycles.
 Requested convergence on MAX density matrix=1.00D-06.
 Requested convergence on             energy=1.00D-06.
 No special actions if energy rises.
 Fock matrices will be formed incrementally for  20 cycles.

 Cycle   1  Pass 1  IDiag  1:
 FoFJK:  IHMeth= 1 ICntrl=       0 DoSepK=T KAlg= 0 I1Cent=           0 FoldK=F
 IRaf=         1 NMat=       1 IRICut=       1 DoRegI=T DoRafI=F ISym2E= 0 IDoP0=0 IntGTp=1.
 FoFCou: FMM=F IPFlag=           0 FMFlag=      100000 FMFlg1=           0
         NFxFlg=           0 DoJE=T BraDBF=F KetDBF=F FulRan=T
         wScrn=  0.000000 ICntrl=       500 IOpCl=  0 I1Cent=           0 NGrid=           0
         NMat0=    1 NMatS0=      1 NMatT0=    0 NMatD0=    1 NMtDS0=    0 NMtDT0=    0
 Symmetry not used in FoFCou.
 Inv3:  Mode=1 IEnd=    13330992.
 Iteration    1 A*A^-1 deviation from unit magnitude is 3.33D-15 for    674.
 Iteration    1 A*A^-1 deviation from orthogonality  is 1.89D-15 for   1939    320.
 Iteration    1 A^-1*A deviation from unit magnitude is 3.55D-15 for    674.
 Iteration    1 A^-1*A deviation from orthogonality  is 1.95D-15 for   1729    489.
 NEqPCM:  Using non-equilibrium solvation (IEInf=1, Eps=   7.4257, EpsInf=   1.9740)
 Inv3:  Mode=1 IEnd=    13330992.
 Iteration    1 A*A^-1 deviation from unit magnitude is 3.33D-15 for    509.
 Iteration    1 A*A^-1 deviation from orthogonality  is 1.58D-15 for   1361     16.
 Iteration    1 A^-1*A deviation from unit magnitude is 3.55D-15 for    509.
 Iteration    1 A^-1*A deviation from orthogonality  is 2.44D-15 for   2090    987.
 E= -633.327662409954    
 DIIS: error= 2.37D-04 at cycle   1 NSaved=   1.
 NSaved= 1 IEnMin= 1 EnMin= -633.327662409954     IErMin= 1 ErrMin= 2.37D-04
 ErrMax= 2.37D-04  0.00D+00 EMaxC= 1.00D-01 BMatC= 1.15D-05 BMatP= 1.15D-05
 IDIUse=3 WtCom= 9.98D-01 WtEn= 2.37D-03
 Coeff-Com:  0.100D+01
 Coeff-En:   0.100D+01
 Coeff:      0.100D+01
 Gap=     0.233 Goal=   None    Shift=    0.000
 RMSDP=1.44D-04 MaxDP=8.23D-03              OVMax= 3.28D-03

 Cycle   2  Pass 1  IDiag  1:
 RMSU=  1.43D-04    CP:  9.99D-01
 E= -633.327683044400     Delta-E=       -0.000020634446 Rises=F Damp=F
 DIIS: error= 1.29D-04 at cycle   2 NSaved=   2.
 NSaved= 2 IEnMin= 2 EnMin= -633.327683044400     IErMin= 2 ErrMin= 1.29D-04
 ErrMax= 1.29D-04  0.00D+00 EMaxC= 1.00D-01 BMatC= 7.78D-06 BMatP= 1.15D-05
 IDIUse=3 WtCom= 9.99D-01 WtEn= 1.29D-03
 Coeff-Com:  0.433D+00 0.567D+00
 Coeff-En:   0.000D+00 0.100D+01
 Coeff:      0.433D+00 0.567D+00
 Gap=     0.233 Goal=   None    Shift=    0.000
 RMSDP=2.75D-05 MaxDP=2.00D-03 DE=-2.06D-05 OVMax= 9.86D-04

 Cycle   3  Pass 1  IDiag  1:
 RMSU=  2.25D-05    CP:  1.00D+00  9.17D-01
 E= -633.327689589240     Delta-E=       -0.000006544840 Rises=F Damp=F
 DIIS: error= 8.53D-05 at cycle   3 NSaved=   3.
 NSaved= 3 IEnMin= 3 EnMin= -633.327689589240     IErMin= 3 ErrMin= 8.53D-05
 ErrMax= 8.53D-05  0.00D+00 EMaxC= 1.00D-01 BMatC= 1.51D-06 BMatP= 7.78D-06
 IDIUse=1 WtCom= 1.00D+00 WtEn= 0.00D+00
 Coeff-Com:  0.755D-01 0.290D+00 0.635D+00
 Coeff:      0.755D-01 0.290D+00 0.635D+00
 Gap=     0.233 Goal=   None    Shift=    0.000
 RMSDP=9.72D-06 MaxDP=4.27D-04 DE=-6.54D-06 OVMax= 5.12D-04

 Cycle   4  Pass 1  IDiag  1:
 RMSU=  9.08D-06    CP:  9.99D-01  9.15D-01  9.00D-01
 E= -633.327690814018     Delta-E=       -0.000001224778 Rises=F Damp=F
 DIIS: error= 1.76D-05 at cycle   4 NSaved=   4.
 NSaved= 4 IEnMin= 4 EnMin= -633.327690814018     IErMin= 4 ErrMin= 1.76D-05
 ErrMax= 1.76D-05  0.00D+00 EMaxC= 1.00D-01 BMatC= 1.31D-07 BMatP= 1.51D-06
 IDIUse=1 WtCom= 1.00D+00 WtEn= 0.00D+00
 Coeff-Com: -0.973D-02 0.510D-01 0.248D+00 0.711D+00
 Coeff:     -0.973D-02 0.510D-01 0.248D+00 0.711D+00
 Gap=     0.233 Goal=   None    Shift=    0.000
 RMSDP=4.99D-06 MaxDP=3.25D-04 DE=-1.22D-06 OVMax= 1.64D-04

 Cycle   5  Pass 1  IDiag  1:
 RMSU=  2.92D-06    CP:  1.00D+00  9.22D-01  1.05D+00  1.16D+00
 E= -633.327690928877     Delta-E=       -0.000000114859 Rises=F Damp=F
 DIIS: error= 6.24D-06 at cycle   5 NSaved=   5.
 NSaved= 5 IEnMin= 5 EnMin= -633.327690928877     IErMin= 5 ErrMin= 6.24D-06
 ErrMax= 6.24D-06  0.00D+00 EMaxC= 1.00D-01 BMatC= 2.33D-08 BMatP= 1.31D-07
 IDIUse=1 WtCom= 1.00D+00 WtEn= 0.00D+00
 Coeff-Com: -0.123D-01-0.181D-01 0.256D-01 0.321D+00 0.684D+00
 Coeff:     -0.123D-01-0.181D-01 0.256D-01 0.321D+00 0.684D+00
 Gap=     0.233 Goal=   None    Shift=    0.000
 RMSDP=1.38D-06 MaxDP=7.84D-05 DE=-1.15D-07 OVMax= 7.32D-05

 Cycle   6  Pass 1  IDiag  1:
 RMSU=  9.20D-07    CP:  1.00D+00  9.21D-01  1.07D+00  1.25D+00  1.06D+00
 E= -633.327690954867     Delta-E=       -0.000000025990 Rises=F Damp=F
 DIIS: error= 3.01D-06 at cycle   6 NSaved=   6.
 NSaved= 6 IEnMin= 6 EnMin= -633.327690954867     IErMin= 6 ErrMin= 3.01D-06
 ErrMax= 3.01D-06  0.00D+00 EMaxC= 1.00D-01 BMatC= 2.35D-09 BMatP= 2.33D-08
 IDIUse=1 WtCom= 1.00D+00 WtEn= 0.00D+00
 Coeff-Com: -0.266D-02-0.124D-01-0.119D-01 0.269D-01 0.237D+00 0.763D+00
 Coeff:     -0.266D-02-0.124D-01-0.119D-01 0.269D-01 0.237D+00 0.763D+00
 Gap=     0.233 Goal=   None    Shift=    0.000
 RMSDP=8.53D-07 MaxDP=6.17D-05 DE=-2.60D-08 OVMax= 4.67D-05

 Cycle   7  Pass 1  IDiag  1:
 RMSU=  3.49D-07    CP:  1.00D+00  9.20D-01  1.09D+00  1.30D+00  1.20D+00
                    CP:  1.21D+00
 E= -633.327690958187     Delta-E=       -0.000000003320 Rises=F Damp=F
 DIIS: error= 1.37D-06 at cycle   7 NSaved=   7.
 NSaved= 7 IEnMin= 7 EnMin= -633.327690958187     IErMin= 7 ErrMin= 1.37D-06
 ErrMax= 1.37D-06  0.00D+00 EMaxC= 1.00D-01 BMatC= 8.06D-10 BMatP= 2.35D-09
 IDIUse=1 WtCom= 1.00D+00 WtEn= 0.00D+00
 Coeff-Com:  0.836D-03-0.404D-02-0.769D-02-0.442D-01-0.614D-02 0.403D+00
 Coeff-Com:  0.658D+00
 Coeff:      0.836D-03-0.404D-02-0.769D-02-0.442D-01-0.614D-02 0.403D+00
 Coeff:      0.658D+00
 Gap=     0.233 Goal=   None    Shift=    0.000
 RMSDP=2.97D-07 MaxDP=1.99D-05 DE=-3.32D-09 OVMax= 2.20D-05

 Cycle   8  Pass 1  IDiag  1:
 RMSU=  1.37D-07    CP:  1.00D+00  9.19D-01  1.09D+00  1.31D+00  1.25D+00
                    CP:  1.35D+00  1.02D+00
 E= -633.327690959306     Delta-E=       -0.000000001119 Rises=F Damp=F
 DIIS: error= 5.47D-07 at cycle   8 NSaved=   8.
 NSaved= 8 IEnMin= 8 EnMin= -633.327690959306     IErMin= 8 ErrMin= 5.47D-07
 ErrMax= 5.47D-07  0.00D+00 EMaxC= 1.00D-01 BMatC= 6.46D-11 BMatP= 8.06D-10
 IDIUse=1 WtCom= 1.00D+00 WtEn= 0.00D+00
 Coeff-Com:  0.685D-03-0.153D-04 0.867D-03-0.168D-01-0.431D-01-0.921D-02
 Coeff-Com:  0.173D+00 0.894D+00
 Coeff:      0.685D-03-0.153D-04 0.867D-03-0.168D-01-0.431D-01-0.921D-02
 Coeff:      0.173D+00 0.894D+00
 Gap=     0.233 Goal=   None    Shift=    0.000
 RMSDP=1.61D-07 MaxDP=9.11D-06 DE=-1.12D-09 OVMax= 1.20D-05

 Cycle   9  Pass 1  IDiag  1:
 RMSU=  6.34D-08    CP:  1.00D+00  9.19D-01  1.10D+00  1.31D+00  1.27D+00
                    CP:  1.44D+00  1.20D+00  1.13D+00
 E= -633.327690959460     Delta-E=       -0.000000000154 Rises=F Damp=F
 DIIS: error= 2.30D-07 at cycle   9 NSaved=   9.
 NSaved= 9 IEnMin= 9 EnMin= -633.327690959460     IErMin= 9 ErrMin= 2.30D-07
 ErrMax= 2.30D-07  0.00D+00 EMaxC= 1.00D-01 BMatC= 7.97D-12 BMatP= 6.46D-11
 IDIUse=1 WtCom= 1.00D+00 WtEn= 0.00D+00
 Coeff-Com:  0.117D-03 0.348D-03 0.144D-02 0.106D-02-0.133D-01-0.598D-01
 Coeff-Com: -0.348D-01 0.286D+00 0.819D+00
 Coeff:      0.117D-03 0.348D-03 0.144D-02 0.106D-02-0.133D-01-0.598D-01
 Coeff:     -0.348D-01 0.286D+00 0.819D+00
 Gap=     0.233 Goal=   None    Shift=    0.000
 RMSDP=4.59D-08 MaxDP=1.73D-06 DE=-1.54D-10 OVMax= 4.47D-06

 Cycle  10  Pass 1  IDiag  1:
 RMSU=  1.99D-08    CP:  1.00D+00  9.19D-01  1.10D+00  1.31D+00  1.27D+00
                    CP:  1.47D+00  1.26D+00  1.24D+00  1.22D+00
 E= -633.327690959484     Delta-E=       -0.000000000024 Rises=F Damp=F
 DIIS: error= 8.59D-08 at cycle  10 NSaved=  10.
 NSaved=10 IEnMin=10 EnMin= -633.327690959484     IErMin=10 ErrMin= 8.59D-08
 ErrMax= 8.59D-08  0.00D+00 EMaxC= 1.00D-01 BMatC= 1.48D-12 BMatP= 7.97D-12
 IDIUse=1 WtCom= 1.00D+00 WtEn= 0.00D+00
 Coeff-Com: -0.379D-04 0.165D-03 0.401D-03 0.276D-02 0.809D-04-0.238D-01
 Coeff-Com: -0.353D-01 0.463D-03 0.316D+00 0.740D+00
 Coeff:     -0.379D-04 0.165D-03 0.401D-03 0.276D-02 0.809D-04-0.238D-01
 Coeff:     -0.353D-01 0.463D-03 0.316D+00 0.740D+00
 Gap=     0.233 Goal=   None    Shift=    0.000
 RMSDP=2.03D-08 MaxDP=1.04D-06 DE=-2.42D-11 OVMax= 1.62D-06

 Cycle  11  Pass 1  IDiag  1:
 RMSU=  9.66D-09    CP:  1.00D+00  9.19D-01  1.10D+00  1.31D+00  1.27D+00
                    CP:  1.48D+00  1.29D+00  1.26D+00  1.39D+00  1.23D+00
 E= -633.327690959486     Delta-E=       -0.000000000002 Rises=F Damp=F
 DIIS: error= 4.18D-08 at cycle  11 NSaved=  11.
 NSaved=11 IEnMin=11 EnMin= -633.327690959486     IErMin=11 ErrMin= 4.18D-08
 ErrMax= 4.18D-08  0.00D+00 EMaxC= 1.00D-01 BMatC= 4.93D-13 BMatP= 1.48D-12
 IDIUse=1 WtCom= 1.00D+00 WtEn= 0.00D+00
 Coeff-Com: -0.408D-04 0.380D-04-0.133D-03 0.121D-02 0.289D-02 0.110D-02
 Coeff-Com: -0.906D-02-0.586D-01-0.160D-01 0.392D+00 0.687D+00
 Coeff:     -0.408D-04 0.380D-04-0.133D-03 0.121D-02 0.289D-02 0.110D-02
 Coeff:     -0.906D-02-0.586D-01-0.160D-01 0.392D+00 0.687D+00
 Gap=     0.233 Goal=   None    Shift=    0.000
 RMSDP=8.78D-09 MaxDP=3.94D-07 DE=-1.59D-12 OVMax= 7.34D-07

 Error on total polarization charges =  0.00927
 SCF Done:  E(RCAM-B3LYP) =  -633.327690959     A.U. after   11 cycles
            NFock= 11  Conv=0.88D-08     -V/T= 2.0041
 KE= 6.307349882998D+02 PE=-3.277549415484D+03 EE= 1.112732119881D+03
 Leave Link  502 at Fri Jan 23 22:50:14 2026, MaxMem=  2147483648 cpu:             691.6 elap:              43.9
 (Enter /data/home/wyx/g16/l601.exe)
 Copying SCF densities to generalized density rwf, IOpCl= 0 IROHF=0.

 **********************************************************************

            Population analysis using the SCF density.

 **********************************************************************

 Orbital symmetries:
       Occupied  (A) (A) (A) (A) (A) (A) (A) (A) (A) (A) (A) (A)
                 (A) (A) (A) (A) (A) (A) (A) (A) (A) (A) (A) (A)
                 (A) (A) (A) (A) (A) (A) (A) (A) (A) (A) (A) (A)
                 (A) (A) (A) (A) (A) (A) (A) (A) (A) (A) (A) (A)
                 (A) (A) (A) (A)
       Virtual   (A) (A) (A) (A) (A) (A) (A) (A) (A) (A) (A) (A)
                 (A) (A) (A) (A) (A) (A) (A) (A) (A) (A) (A) (A)
                 (A) (A) (A) (A) (A) (A) (A) (A) (A) (A) (A) (A)
                 (A) (A) (A) (A) (A) (A) (A) (A) (A) (A) (A) (A)
                 (A) (A) (A) (A) (A) (A) (A) (A) (A) (A) (A) (A)
                 (A) (A) (A) (A) (A) (A) (A) (A) (A) (A) (A) (A)
                 (A) (A) (A) (A) (A) (A) (A) (A) (A) (A) (A) (A)
                 (A) (A) (A) (A) (A) (A) (A) (A) (A) (A) (A) (A)
                 (A) (A) (A) (A) (A) (A) (A) (A) (A) (A) (A) (A)
                 (A) (A) (A) (A) (A) (A) (A) (A) (A) (A) (A) (A)
                 (A) (A) (A) (A) (A) (A) (A) (A) (A) (A) (A) (A)
                 (A) (A) (A) (A) (A) (A) (A) (A) (A) (A) (A) (A)
                 (A) (A) (A) (A) (A) (A) (A) (A) (A) (A) (A) (A)
                 (A) (A) (A) (A) (A) (A) (A) (A) (A) (A) (A) (A)
                 (A) (A) (A) (A) (A) (A) (A) (A) (A) (A) (A) (A)
                 (A) (A) (A) (A) (A) (A) (A) (A) (A) (A) (A) (A)
                 (A) (A) (A) (A) (A) (A) (A) (A) (A) (A) (A) (A)
                 (A) (A) (A) (A) (A) (A) (A) (A) (A) (A) (A) (A)
                 (A) (A) (A) (A) (A) (A) (A) (A) (A) (A) (A) (A)
                 (A) (A) (A) (A) (A) (A) (A) (A) (A) (A) (A) (A)
                 (A) (A) (A) (A) (A) (A) (A) (A) (A) (A) (A) (A)
                 (A) (A) (A) (A) (A) (A) (A) (A) (A) (A) (A) (A)
                 (A) (A) (A) (A) (A) (A) (A) (A) (A) (A) (A) (A)
                 (A) (A) (A) (A) (A) (A) (A) (A) (A) (A) (A) (A)
                 (A) (A) (A) (A) (A) (A) (A) (A) (A) (A) (A) (A)
                 (A) (A) (A) (A)
 The electronic state is 1-A.
 Alpha  occ. eigenvalues --  -19.17848 -19.17137 -14.44111 -10.33409 -10.32841
 Alpha  occ. eigenvalues --  -10.32120 -10.31470 -10.25966 -10.25033 -10.24728
 Alpha  occ. eigenvalues --  -10.24486 -10.24371 -10.24356 -10.23553  -1.11897
 Alpha  occ. eigenvalues --   -1.11347  -1.07616  -0.91220  -0.90182  -0.83845
 Alpha  occ. eigenvalues --   -0.82530  -0.81647  -0.78459  -0.73834  -0.71333
 Alpha  occ. eigenvalues --   -0.68527  -0.61517  -0.58170  -0.56803  -0.55081
 Alpha  occ. eigenvalues --   -0.54464  -0.53951  -0.52545  -0.51875  -0.50773
 Alpha  occ. eigenvalues --   -0.49923  -0.49484  -0.49146  -0.48596  -0.48033
 Alpha  occ. eigenvalues --   -0.46903  -0.45231  -0.45132  -0.43438  -0.43015
 Alpha  occ. eigenvalues --   -0.42334  -0.42033  -0.41849  -0.32682  -0.32181
 Alpha  occ. eigenvalues --   -0.31123  -0.25732
 Alpha virt. eigenvalues --   -0.02410   0.02615   0.06377   0.08235   0.08518
 Alpha virt. eigenvalues --    0.09995   0.10822   0.11944   0.12662   0.13540
 Alpha virt. eigenvalues --    0.14207   0.14874   0.15691   0.16201   0.16958
 Alpha virt. eigenvalues --    0.17577   0.17833   0.18043   0.18173   0.19241
 Alpha virt. eigenvalues --    0.19977   0.22166   0.22890   0.23507   0.23760
 Alpha virt. eigenvalues --    0.23911   0.24861   0.25671   0.26098   0.26624
 Alpha virt. eigenvalues --    0.26995   0.27622   0.28919   0.29001   0.30212
 Alpha virt. eigenvalues --    0.31730   0.32064   0.32667   0.33654   0.34495
 Alpha virt. eigenvalues --    0.35317   0.36070   0.36798   0.38196   0.38838
 Alpha virt. eigenvalues --    0.40045   0.41109   0.41711   0.42259   0.42725
 Alpha virt. eigenvalues --    0.44084   0.44478   0.45527   0.46073   0.46337
 Alpha virt. eigenvalues --    0.47289   0.47779   0.48157   0.48329   0.49061
 Alpha virt. eigenvalues --    0.49530   0.50561   0.50866   0.51454   0.51741
 Alpha virt. eigenvalues --    0.52890   0.53167   0.53462   0.54253   0.54325
 Alpha virt. eigenvalues --    0.54598   0.55873   0.56274   0.56631   0.58367
 Alpha virt. eigenvalues --    0.58790   0.59051   0.60883   0.61183   0.62822
 Alpha virt. eigenvalues --    0.63478   0.65825   0.66260   0.66534   0.68027
 Alpha virt. eigenvalues --    0.68704   0.70184   0.71287   0.72338   0.73062
 Alpha virt. eigenvalues --    0.73354   0.73931   0.74869   0.76091   0.77918
 Alpha virt. eigenvalues --    0.78466   0.79918   0.82387   0.84979   0.85415
 Alpha virt. eigenvalues --    0.89732   0.93674   1.00123   1.01568   1.24154
 Alpha virt. eigenvalues --    1.25516   1.27119   1.27855   1.29470   1.31448
 Alpha virt. eigenvalues --    1.32614   1.33123   1.34113   1.35024   1.36063
 Alpha virt. eigenvalues --    1.36585   1.37385   1.38280   1.39195   1.39983
 Alpha virt. eigenvalues --    1.40038   1.40422   1.41074   1.41570   1.41815
 Alpha virt. eigenvalues --    1.43429   1.44225   1.44550   1.45242   1.47215
 Alpha virt. eigenvalues --    1.48232   1.49312   1.49786   1.50500   1.51160
 Alpha virt. eigenvalues --    1.52039   1.52488   1.53589   1.54703   1.57929
 Alpha virt. eigenvalues --    1.58444   1.60688   1.60776   1.61398   1.62372
 Alpha virt. eigenvalues --    1.62720   1.63457   1.64235   1.65098   1.65803
 Alpha virt. eigenvalues --    1.66973   1.67357   1.67689   1.68376   1.68589
 Alpha virt. eigenvalues --    1.68834   1.69960   1.70452   1.71883   1.72346
 Alpha virt. eigenvalues --    1.73629   1.75331   1.76241   1.76725   1.78957
 Alpha virt. eigenvalues --    1.80465   1.83160   1.84317   1.86057   1.86623
 Alpha virt. eigenvalues --    1.86967   1.87616   1.88653   1.88958   1.90757
 Alpha virt. eigenvalues --    1.91388   1.94644   1.95278   1.98570   1.99805
 Alpha virt. eigenvalues --    2.01136   2.03888   2.04882   2.06668   2.09667
 Alpha virt. eigenvalues --    2.11271   2.12895   2.14793   2.17106   2.19670
 Alpha virt. eigenvalues --    2.20355   2.21344   2.21954   2.22919   2.26138
 Alpha virt. eigenvalues --    2.27190   2.27547   2.29219   2.30989   2.31811
 Alpha virt. eigenvalues --    2.33476   2.34670   2.36647   2.37301   2.38255
 Alpha virt. eigenvalues --    2.39587   2.40332   2.41731   2.43623   2.44976
 Alpha virt. eigenvalues --    2.46118   2.47845   2.50306   2.50687   2.51786
 Alpha virt. eigenvalues --    2.52489   2.53874   2.55065   2.56836   2.58527
 Alpha virt. eigenvalues --    2.59095   2.60350   2.61326   2.62311   2.62888
 Alpha virt. eigenvalues --    2.64590   2.65852   2.67024   2.67499   2.69010
 Alpha virt. eigenvalues --    2.71446   2.72109   2.72926   2.73858   2.75214
 Alpha virt. eigenvalues --    2.76161   2.76579   2.77436   2.78044   2.79532
 Alpha virt. eigenvalues --    2.80749   2.81701   2.83477   2.83600   2.84576
 Alpha virt. eigenvalues --    2.85642   2.86314   2.88125   2.90200   2.91862
 Alpha virt. eigenvalues --    2.97782   3.00112   3.00934   3.04646   3.10677
 Alpha virt. eigenvalues --    3.12352   3.15883   3.16828   3.17457   3.20767
 Alpha virt. eigenvalues --    3.21435   3.22586   3.24857   3.26344   3.27200
 Alpha virt. eigenvalues --    3.27701   3.29837   3.33547   3.34786   3.36662
 Alpha virt. eigenvalues --    3.37251   3.38800   3.39966   3.40424   3.41883
 Alpha virt. eigenvalues --    3.42573   3.44809   3.45574   3.47085   3.48167
 Alpha virt. eigenvalues --    3.49189   3.49541   3.55303   3.58533   3.59913
 Alpha virt. eigenvalues --    3.60684   3.90404   4.00000   4.34233   4.36509
 Alpha virt. eigenvalues --   21.64560  21.79940  22.08460  22.11001  22.11890
 Alpha virt. eigenvalues --   22.14919  22.15310  22.18640  22.20842  22.24906
 Alpha virt. eigenvalues --   22.29977  31.92897  43.63249  43.65869
          Condensed to atoms (all electrons):
               1          2          3          4          5          6
     1  O    7.936147   0.000000  -0.000227   0.000018   0.016514   0.015280
     2  O    0.000000   7.971879   0.000445   0.000029  -0.199112   0.001001
     3  N   -0.000227   0.000445   6.388727   0.373100  -0.114241   0.328122
     4  H    0.000018   0.000029   0.373100   0.410651   0.017001  -0.047210
     5  C    0.016514  -0.199112  -0.114241   0.017001   6.979526  -0.068096
     6  C    0.015280   0.001001   0.328122  -0.047210  -0.068096   5.610694
     7  C   -0.000378  -0.036553   0.380755  -0.039109   0.398965  -0.095695
     8  C   -0.000278   0.711922   0.004730  -0.000700  -0.249379   0.027364
     9  C   -0.023947   0.019771   0.013499  -0.000097  -0.513699  -0.105998
    10  H    0.014547  -0.000019  -0.001376   0.000019  -0.113679   0.026444
    11  H    0.004296   0.000106   0.003836   0.000017  -0.031048  -0.016837
    12  C   -0.221440  -0.002403  -0.088761   0.014938   0.158426  -0.153988
    13  C    0.715077  -0.000025   0.000698   0.000420   0.075925   0.170503
    14  C   -0.000006  -0.008879  -0.035385  -0.009492  -0.077310   0.010589
    15  H   -0.000000   0.004302   0.003737   0.001567   0.018205   0.006489
    16  H   -0.000000   0.001827   0.001041   0.000770  -0.008554  -0.000897
    17  H   -0.000000   0.001900  -0.002792   0.000923  -0.004563  -0.001891
    18  C   -0.000022  -0.105696  -0.000588   0.000019  -0.272466   0.000582
    19  H   -0.000003   0.008994   0.000002  -0.000001   0.024407   0.000028
    20  H    0.000088   0.003622   0.000122   0.000001   0.042690  -0.001127
    21  H    0.000015   0.001066   0.000013  -0.000000   0.004394   0.000240
    22  C   -0.107007   0.000000  -0.000061   0.000119   0.004134  -0.009427
    23  H    0.001264  -0.000000  -0.000027  -0.000016  -0.000063   0.010659
    24  H    0.004776  -0.000000  -0.000025  -0.000052  -0.000589  -0.032755
    25  H    0.007613   0.000000   0.000030  -0.000002  -0.000148  -0.001294
    26  C    0.000874   0.000005  -0.029688  -0.006013   0.000232   0.175390
    27  H   -0.000047  -0.000000  -0.002424   0.000434   0.000406  -0.035773
    28  H   -0.000244  -0.000000   0.002690   0.000864  -0.000009  -0.046178
    29  H    0.000026  -0.000000   0.000825   0.001120  -0.000478  -0.049505
               7          8          9         10         11         12
     1  O   -0.000378  -0.000278  -0.023947   0.014547   0.004296  -0.221440
     2  O   -0.036553   0.711922   0.019771  -0.000019   0.000106  -0.002403
     3  N    0.380755   0.004730   0.013499  -0.001376   0.003836  -0.088761
     4  H   -0.039109  -0.000700  -0.000097   0.000019   0.000017   0.014938
     5  C    0.398965  -0.249379  -0.513699  -0.113679  -0.031048   0.158426
     6  C   -0.095695   0.027364  -0.105998   0.026444  -0.016837  -0.153988
     7  C    5.408771  -0.191596  -0.176140   0.018573  -0.005293   0.000460
     8  C   -0.191596   5.347612   0.105695  -0.009620  -0.004100  -0.034381
     9  C   -0.176140   0.105695   6.274619   0.532579   0.394314  -0.003224
    10  H    0.018573  -0.009620   0.532579   0.509313  -0.036526  -0.107599
    11  H   -0.005293  -0.004100   0.394314  -0.036526   0.551620  -0.016700
    12  C    0.000460  -0.034381  -0.003224  -0.107599  -0.016700   7.278166
    13  C    0.012734  -0.006334  -0.261512  -0.001626  -0.000695  -0.409772
    14  C    0.265622  -0.036712   0.010236   0.000551  -0.001275  -0.004116
    15  H   -0.076622   0.005574   0.000086  -0.000003   0.000062  -0.001276
    16  H   -0.028296  -0.007343  -0.000535  -0.000054   0.000192  -0.000025
    17  H   -0.023681  -0.002197   0.000705   0.000054  -0.000067   0.000812
    18  C    0.001655   0.317017   0.003672   0.008592  -0.009523  -0.004031
    19  H    0.000322  -0.052873  -0.000408   0.000572  -0.000029  -0.000186
    20  H    0.001458  -0.063965  -0.010121  -0.005474   0.002345   0.006796
    21  H    0.000681  -0.025372  -0.009268  -0.002257   0.000929  -0.003374
    22  C   -0.000029  -0.000059   0.003835   0.000846   0.001765  -0.262208
    23  H    0.000019   0.000003  -0.002065  -0.000119   0.000150  -0.010986
    24  H    0.000004  -0.000007   0.003372  -0.000046  -0.000136   0.066845
    25  H    0.000008   0.000003   0.000284  -0.000129  -0.000046   0.022537
    26  C    0.002725   0.000528   0.020489   0.000032  -0.000738  -0.077045
    27  H   -0.000772  -0.000009  -0.000203   0.000043  -0.000022  -0.019187
    28  H   -0.000758   0.000002  -0.000634   0.000005  -0.000101  -0.007079
    29  H    0.003529  -0.000006  -0.000556  -0.000011   0.000102   0.022942
              13         14         15         16         17         18
     1  O    0.715077  -0.000006  -0.000000  -0.000000  -0.000000  -0.000022
     2  O   -0.000025  -0.008879   0.004302   0.001827   0.001900  -0.105696
     3  N    0.000698  -0.035385   0.003737   0.001041  -0.002792  -0.000588
     4  H    0.000420  -0.009492   0.001567   0.000770   0.000923   0.000019
     5  C    0.075925  -0.077310   0.018205  -0.008554  -0.004563  -0.272466
     6  C    0.170503   0.010589   0.006489  -0.000897  -0.001891   0.000582
     7  C    0.012734   0.265622  -0.076622  -0.028296  -0.023681   0.001655
     8  C   -0.006334  -0.036712   0.005574  -0.007343  -0.002197   0.317017
     9  C   -0.261512   0.010236   0.000086  -0.000535   0.000705   0.003672
    10  H   -0.001626   0.000551  -0.000003  -0.000054   0.000054   0.008592
    11  H   -0.000695  -0.001275   0.000062   0.000192  -0.000067  -0.009523
    12  C   -0.409772  -0.004116  -0.001276  -0.000025   0.000812  -0.004031
    13  C    5.468201  -0.000021  -0.000024  -0.000002  -0.000016   0.000618
    14  C   -0.000021   5.059014   0.386538   0.423352   0.408795   0.001574
    15  H   -0.000024   0.386538   0.580266  -0.027903  -0.026346   0.000284
    16  H   -0.000002   0.423352  -0.027903   0.509235  -0.026662  -0.000215
    17  H   -0.000016   0.408795  -0.026346  -0.026662   0.511106  -0.000046
    18  C    0.000618   0.001574   0.000284  -0.000215  -0.000046   5.351880
    19  H   -0.000013   0.000064  -0.000005   0.000030  -0.000024   0.392111
    20  H    0.000543   0.000046  -0.000016  -0.000038   0.000005   0.380986
    21  H   -0.000075  -0.000268  -0.000006   0.000023  -0.000008   0.396771
    22  C    0.285670  -0.000023   0.000002  -0.000000   0.000000   0.000026
    23  H   -0.022896  -0.000001   0.000000  -0.000000   0.000000  -0.000002
    24  H   -0.092970  -0.000000   0.000000   0.000000   0.000000   0.000003
    25  H   -0.040132   0.000000   0.000000   0.000000  -0.000000  -0.000001
    26  C   -0.054497   0.001272   0.000099   0.000054  -0.000162   0.000023
    27  H    0.006320  -0.000109   0.000000   0.000004  -0.000010  -0.000001
    28  H   -0.004705   0.000092  -0.000012  -0.000001   0.000001  -0.000000
    29  H   -0.000686  -0.000268   0.000124  -0.000004   0.000003   0.000000
              19         20         21         22         23         24
     1  O   -0.000003   0.000088   0.000015  -0.107007   0.001264   0.004776
     2  O    0.008994   0.003622   0.001066   0.000000  -0.000000  -0.000000
     3  N    0.000002   0.000122   0.000013  -0.000061  -0.000027  -0.000025
     4  H   -0.000001   0.000001  -0.000000   0.000119  -0.000016  -0.000052
     5  C    0.024407   0.042690   0.004394   0.004134  -0.000063  -0.000589
     6  C    0.000028  -0.001127   0.000240  -0.009427   0.010659  -0.032755
     7  C    0.000322   0.001458   0.000681  -0.000029   0.000019   0.000004
     8  C   -0.052873  -0.063965  -0.025372  -0.000059   0.000003  -0.000007
     9  C   -0.000408  -0.010121  -0.009268   0.003835  -0.002065   0.003372
    10  H    0.000572  -0.005474  -0.002257   0.000846  -0.000119  -0.000046
    11  H   -0.000029   0.002345   0.000929   0.001765   0.000150  -0.000136
    12  C   -0.000186   0.006796  -0.003374  -0.262208  -0.010986   0.066845
    13  C   -0.000013   0.000543  -0.000075   0.285670  -0.022896  -0.092970
    14  C    0.000064   0.000046  -0.000268  -0.000023  -0.000001  -0.000000
    15  H   -0.000005  -0.000016  -0.000006   0.000002   0.000000   0.000000
    16  H    0.000030  -0.000038   0.000023  -0.000000  -0.000000   0.000000
    17  H   -0.000024   0.000005  -0.000008   0.000000   0.000000   0.000000
    18  C    0.392111   0.380986   0.396771   0.000026  -0.000002   0.000003
    19  H    0.506951  -0.022364  -0.010167  -0.000000   0.000000   0.000000
    20  H   -0.022364   0.535771  -0.025509   0.000018  -0.000000  -0.000000
    21  H   -0.010167  -0.025509   0.501030  -0.000013   0.000000  -0.000000
    22  C   -0.000000   0.000018  -0.000013   5.426085   0.400863   0.397564
    23  H    0.000000  -0.000000   0.000000   0.400863   0.496013  -0.027381
    24  H    0.000000  -0.000000  -0.000000   0.397564  -0.027381   0.542617
    25  H   -0.000000  -0.000000   0.000000   0.384668  -0.007901  -0.022015
    26  C    0.000000  -0.000015   0.000005  -0.028749  -0.014193   0.015945
    27  H    0.000000  -0.000000  -0.000000  -0.010791   0.001084  -0.001496
    28  H   -0.000000  -0.000000   0.000000   0.007806  -0.000522  -0.009736
    29  H    0.000000   0.000000  -0.000000   0.001940   0.000217   0.000706
              25         26         27         28         29
     1  O    0.007613   0.000874  -0.000047  -0.000244   0.000026
     2  O    0.000000   0.000005  -0.000000  -0.000000  -0.000000
     3  N    0.000030  -0.029688  -0.002424   0.002690   0.000825
     4  H   -0.000002  -0.006013   0.000434   0.000864   0.001120
     5  C   -0.000148   0.000232   0.000406  -0.000009  -0.000478
     6  C   -0.001294   0.175390  -0.035773  -0.046178  -0.049505
     7  C    0.000008   0.002725  -0.000772  -0.000758   0.003529
     8  C    0.000003   0.000528  -0.000009   0.000002  -0.000006
     9  C    0.000284   0.020489  -0.000203  -0.000634  -0.000556
    10  H   -0.000129   0.000032   0.000043   0.000005  -0.000011
    11  H   -0.000046  -0.000738  -0.000022  -0.000101   0.000102
    12  C    0.022537  -0.077045  -0.019187  -0.007079   0.022942
    13  C   -0.040132  -0.054497   0.006320  -0.004705  -0.000686
    14  C    0.000000   0.001272  -0.000109   0.000092  -0.000268
    15  H    0.000000   0.000099   0.000000  -0.000012   0.000124
    16  H    0.000000   0.000054   0.000004  -0.000001  -0.000004
    17  H   -0.000000  -0.000162  -0.000010   0.000001   0.000003
    18  C   -0.000001   0.000023  -0.000001  -0.000000   0.000000
    19  H   -0.000000   0.000000   0.000000  -0.000000   0.000000
    20  H   -0.000000  -0.000015  -0.000000  -0.000000   0.000000
    21  H    0.000000   0.000005  -0.000000   0.000000  -0.000000
    22  C    0.384668  -0.028749  -0.010791   0.007806   0.001940
    23  H   -0.007901  -0.014193   0.001084  -0.000522   0.000217
    24  H   -0.022015   0.015945  -0.001496  -0.009736   0.000706
    25  H    0.493712   0.001858   0.000108   0.000819  -0.000042
    26  C    0.001858   5.258438   0.429261   0.427843   0.390791
    27  H    0.000108   0.429261   0.483112  -0.025992  -0.018853
    28  H    0.000819   0.427843  -0.025992   0.511661  -0.026515
    29  H   -0.000042   0.390791  -0.018853  -0.026515   0.519609
 Mulliken charges:
               1
     1  O   -0.362934
     2  O   -0.374183
     3  N   -0.226777
     4  H    0.280682
     5  C   -0.087392
     6  C    0.283284
     7  C    0.178641
     8  C    0.164478
     9  C   -0.274749
    10  H    0.166367
    11  H    0.163402
    12  C   -0.144141
    13  C    0.159291
    14  C   -0.393882
    15  H    0.124878
    16  H    0.164001
    17  H    0.164161
    18  C   -0.463223
    19  H    0.152592
    20  H    0.154137
    21  H    0.171147
    22  C   -0.496974
    23  H    0.175897
    24  H    0.155378
    25  H    0.160071
    26  C   -0.514763
    27  H    0.194915
    28  H    0.170705
    29  H    0.154990
 Sum of Mulliken charges =  -0.00000
 Mulliken charges with hydrogens summed into heavy atoms:
               1
     1  O   -0.362934
     2  O   -0.374183
     3  N    0.053905
     5  C   -0.087392
     6  C    0.283284
     7  C    0.178641
     8  C    0.164478
     9  C    0.055020
    12  C   -0.144141
    13  C    0.159291
    14  C    0.059158
    18  C    0.014655
    22  C   -0.005628
    26  C    0.005847
 Electronic spatial extent (au):  <R**2>=           3187.9389
 Charge=             -0.0000 electrons
 Dipole moment (field-independent basis, Debye):
    X=              3.8268    Y=              7.1605    Z=             -0.2393  Tot=              8.1225
 Quadrupole moment (field-independent basis, Debye-Ang):
   XX=            -98.1448   YY=            -78.6291   ZZ=            -84.9196
   XY=             12.2732   XZ=              5.1456   YZ=             -1.6631
 Traceless Quadrupole moment (field-independent basis, Debye-Ang):
   XX=            -10.9137   YY=              8.6021   ZZ=              2.3116
   XY=             12.2732   XZ=              5.1456   YZ=             -1.6631
 Octapole moment (field-independent basis, Debye-Ang**2):
  XXX=            105.3550  YYY=             62.1713  ZZZ=              1.7195  XYY=            -34.0888
  XXY=             29.8943  XXZ=             -9.0822  XZZ=              1.7692  YZZ=             -1.4794
  YYZ=              3.4148  XYZ=             -5.1822
 Hexadecapole moment (field-independent basis, Debye-Ang**3):
 XXXX=          -3037.0464 YYYY=          -1279.6030 ZZZZ=           -153.9651 XXXY=             34.3696
 XXXZ=             58.6242 YYYX=             85.7319 YYYZ=            -21.0299 ZZZX=             -2.9914
 ZZZY=              5.0651 XXYY=           -691.9265 XXZZ=           -484.7780 YYZZ=           -243.2150
 XXYZ=             -7.4243 YYXZ=              7.3150 ZZXY=             -1.2187
 N-N= 9.007546163436D+02 E-N=-3.277549412057D+03  KE= 6.307349882998D+02
 No NMR shielding tensors so no spin-rotation constants.
 Leave Link  601 at Fri Jan 23 22:50:15 2026, MaxMem=  2147483648 cpu:               1.8 elap:               0.1
 (Enter /data/home/wyx/g16/l9999.exe)
 1\1\GINC-CN012\SP\RCAM-B3LYP\TZVP\C11H15N1O2\WYX\23-Jan-2026\0\\#p CAM
 -B3LYP TZVP em=gd3bj scrf=(Solvent=TetraHydroFuran,NonEquilibrium=Read
 ) Geom=Check Guess=Read\\Title Card Required\\0,1\O,0,2.836357,-1.5663
 81,0.130446\O,0,-3.421792,-1.626118,0.035495\N,0,-0.64043,1.511966,-0.
 332319\H,0,-0.949967,2.46982,-0.385617\C,0,-1.239668,-0.758331,-0.2192
 87\C,0,0.697053,1.305756,-0.090736\C,0,-1.616079,0.552338,-0.282568\C,
 0,-2.221687,-1.831505,-0.115229\C,0,0.215078,-1.106264,-0.323646\H,0,0
 .456719,-1.94429,0.329808\H,0,0.444809,-1.485486,-1.330139\C,0,1.15068
 1,0.02331,-0.003572\C,0,2.513802,-0.395236,0.315459\C,0,-3.00558,1.091
 293,-0.307278\H,0,-3.008114,2.152041,-0.552675\H,0,-3.620786,0.561461,
 -1.026322\H,0,-3.487641,0.96226,0.658872\C,0,-1.727244,-3.251228,-0.18
 9604\H,0,-2.570383,-3.922728,-0.309579\H,0,-1.027384,-3.40283,-1.00767
 3\H,0,-1.203902,-3.520473,0.727154\C,0,3.538268,0.540583,0.909717\H,0,
 4.051458,1.093172,0.120607\H,0,3.109912,1.258259,1.604516\H,0,4.278866
 ,-0.066402,1.425225\C,0,1.46782,2.580997,0.032041\H,0,1.556226,2.89358
 2,1.072522\H,0,2.465013,2.499853,-0.381636\H,0,0.958596,3.38058,-0.503
 982\\Version=ES64L-G16RevA.03\State=1-A\HF=-633.327691\RMSD=8.777e-09\
 Dipole=0.4832597,3.1570694,-0.1065355\Quadrupole=-12.9709734,10.539464
 4,2.431509,2.5225269,2.288752,0.2270665\PG=C01 [X(C11H15N1O2)]\\@


 FRICTION IS A DRAG,
 AND ENTROPY AIN'T WHAT IT USED TO BE.
 Job cpu time:       0 days  0 hours 11 minutes 42.1 seconds.
 Elapsed time:       0 days  0 hours  0 minutes 44.8 seconds.
 File lengths (MBytes):  RWF=    341 Int=      0 D2E=      0 Chk=     67 Scr=      1
 Normal termination of Gaussian 16 at Fri Jan 23 22:50:15 2026.
