 Entering Gaussian System, Link 0=g16
 Input=DDL-S2-cLR-6.gjf
 Output=DDL-S2-cLR-6.log
 Initial command:
 /data/home/wyx/g16/l1.exe "/scr/tmp/wyx/13106/Gau-1974604.inp" -scrdir="/scr/tmp/wyx/13106/"
 Entering Link 1 = /data/home/wyx/g16/l1.exe PID=   1974605.
  
 Copyright (c) 1988,1990,1992,1993,1995,1998,2003,2009,2016,
            Gaussian, Inc.  All Rights Reserved.
  
 This is part of the Gaussian(R) 16 program.  It is based on
 the Gaussian(R) 09 system (copyright 2009, Gaussian, Inc.),
 the Gaussian(R) 03 system (copyright 2003, Gaussian, Inc.),
 the Gaussian(R) 98 system (copyright 1998, Gaussian, Inc.),
 the Gaussian(R) 94 system (copyright 1995, Gaussian, Inc.),
 the Gaussian 92(TM) system (copyright 1992, Gaussian, Inc.),
 the Gaussian 90(TM) system (copyright 1990, Gaussian, Inc.),
 the Gaussian 88(TM) system (copyright 1988, Gaussian, Inc.),
 the Gaussian 86(TM) system (copyright 1986, Carnegie Mellon
 University), and the Gaussian 82(TM) system (copyright 1983,
 Carnegie Mellon University). Gaussian is a federally registered
 trademark of Gaussian, Inc.
  
 This software contains proprietary and confidential information,
 including trade secrets, belonging to Gaussian, Inc.
  
 This software is provided under written license and may be
 used, copied, transmitted, or stored only in accord with that
 written license.
  
 The following legend is applicable only to US Government
 contracts under FAR:
  
                    RESTRICTED RIGHTS LEGEND
  
 Use, reproduction and disclosure by the US Government is
 subject to restrictions as set forth in subparagraphs (a)
 and (c) of the Commercial Computer Software - Restricted
 Rights clause in FAR 52.227-19.
  
 Gaussian, Inc.
 340 Quinnipiac St., Bldg. 40, Wallingford CT 06492
  
  
 ---------------------------------------------------------------
 Warning -- This program may not be used in any manner that
 competes with the business of Gaussian, Inc. or will provide
 assistance to any competitor of Gaussian, Inc.  The licensee
 of this program is prohibited from giving any competitor of
 Gaussian, Inc. access to this program.  By using this program,
 the user acknowledges that Gaussian, Inc. is engaged in the
 business of creating and licensing software in the field of
 computational chemistry and represents and warrants to the
 licensee that it is not a competitor of Gaussian, Inc. and that
 it will not use this program in any manner prohibited above.
 ---------------------------------------------------------------
  

 Cite this work as:
 Gaussian 16, Revision A.03,
 M. J. Frisch, G. W. Trucks, H. B. Schlegel, G. E. Scuseria, 
 M. A. Robb, J. R. Cheeseman, G. Scalmani, V. Barone, 
 G. A. Petersson, H. Nakatsuji, X. Li, M. Caricato, A. V. Marenich, 
 J. Bloino, B. G. Janesko, R. Gomperts, B. Mennucci, H. P. Hratchian, 
 J. V. Ortiz, A. F. Izmaylov, J. L. Sonnenberg, D. Williams-Young, 
 F. Ding, F. Lipparini, F. Egidi, J. Goings, B. Peng, A. Petrone, 
 T. Henderson, D. Ranasinghe, V. G. Zakrzewski, J. Gao, N. Rega, 
 G. Zheng, W. Liang, M. Hada, M. Ehara, K. Toyota, R. Fukuda, 
 J. Hasegawa, M. Ishida, T. Nakajima, Y. Honda, O. Kitao, H. Nakai, 
 T. Vreven, K. Throssell, J. A. Montgomery, Jr., J. E. Peralta, 
 F. Ogliaro, M. J. Bearpark, J. J. Heyd, E. N. Brothers, K. N. Kudin, 
 V. N. Staroverov, T. A. Keith, R. Kobayashi, J. Normand, 
 K. Raghavachari, A. P. Rendell, J. C. Burant, S. S. Iyengar, 
 J. Tomasi, M. Cossi, J. M. Millam, M. Klene, C. Adamo, R. Cammi, 
 J. W. Ochterski, R. L. Martin, K. Morokuma, O. Farkas, 
 J. B. Foresman, and D. J. Fox, Gaussian, Inc., Wallingford CT, 2016.
 
 ******************************************
 Gaussian 16:  ES64L-G16RevA.03 25-Dec-2016
                23-Jan-2026 
 ******************************************
 %nprocshared=16
 Will use up to   16 processors via shared memory.
 %mem=16GB
 %oldchk=DDL-LR-6.chk
 %chk=DDL-S2-cLR-6.chk
 Copying data from "DDL-LR-6.chk" to current chk file "DDL-S2-cLR-6.chk"
 IOpt=  2 FromEx=T IUOpen= 4 IOptOp= 5 NList=   0 IFRang= 0 IUIn= 4 IUOut= 2.
 ----------------------------------------------------------------------
 #p CAM-B3LYP TZVP em=gd3bj td(nstates=6,root=2) scrf=(Solvent=TetraHyd
 roFuran,CorrectedLR,NonEquilibrium=Save) Geom=Check Guess=Read
 ----------------------------------------------------------------------
 1/29=2,30=1,38=1,172=1/1;
 2/12=2,40=1/2;
 3/5=19,7=101,11=9,14=-4,25=1,30=1,70=9002201,71=1,72=20,74=-40,116=-2,124=41/1,2,3,8;
 4/5=1/1;
 5/5=2,38=6,53=20/2;
 8/6=1,10=1,107=2,108=6/1;
 9/8=2,15=1,41=6,42=1,70=2,73=22/14;
 10/5=4,13=10,28=2,74=20/2;
 6/7=2,8=2,9=2,10=2,22=-1/1;
 99/5=1,9=1/99;
 Leave Link    1 at Fri Jan 23 18:40:27 2026, MaxMem=  2147483648 cpu:               0.8 elap:               0.1
 (Enter /data/home/wyx/g16/l101.exe)
 -------------------
 Title Card Required
 -------------------
 Structure from the checkpoint file:  "DDL-S2-cLR-6.chk"
 Charge =  0 Multiplicity = 1
 Z-Matrix found in chk file.
 O,0,2.838809,-1.571128,0.068736
 O,0,-3.427353,-1.641177,-0.082262
 N,0,-0.656723,1.516031,-0.234645
 H,0,-0.967862,2.475653,-0.285417
 C,0,-1.245636,-0.761057,-0.207138
 C,0,0.684977,1.325013,-0.046062
 C,0,-1.630886,0.569721,-0.253025
 C,0,-2.215241,-1.841272,-0.160243
 C,0,0.201203,-1.09032,-0.234406
 H,0,0.423308,-1.907329,0.457948
 H,0,0.464529,-1.536889,-1.208585
 C,0,1.148518,0.025151,0.026423
 C,0,2.516735,-0.399667,0.285161
 C,0,-3.018943,1.100641,-0.335118
 H,0,-3.018592,2.178649,-0.487134
 H,0,-3.570426,0.636659,-1.14645
 H,0,-3.576381,0.883996,0.571943
 C,0,-1.715791,-3.260995,-0.186936
 H,0,-2.536482,-3.926766,-0.429515
 H,0,-0.91224,-3.417795,-0.900131
 H,0,-1.332299,-3.547828,0.791364
 C,0,3.557068,0.531983,0.857866
 H,0,4.065357,1.075725,0.059011
 H,0,3.145927,1.257569,1.55484
 H,0,4.299723,-0.077657,1.367788
 C,0,1.468398,2.593322,0.027373
 H,0,1.662978,2.895519,1.056446
 H,0,2.423192,2.50674,-0.478761
 H,0,0.924131,3.407506,-0.449071
 Recover connectivity data from disk.
 ITRead=  0  0  0  0  0  0  0  0  0  0  0  0  0  0  0  0  0  0  0  0
 ITRead=  0  0  0  0  0  0  0  0  0
 MicOpt= -1 -1 -1 -1 -1 -1 -1 -1 -1 -1 -1 -1 -1 -1 -1 -1 -1 -1 -1 -1
 MicOpt= -1 -1 -1 -1 -1 -1 -1 -1 -1
 NAtoms=     29 NQM=       29 NQMF=       0 NMMI=      0 NMMIF=      0
                NMic=       0 NMicF=      0.
                    Isotopes and Nuclear Properties:
 (Nuclear quadrupole moments (NQMom) in fm**2, nuclear magnetic moments (NMagM)
  in nuclear magnetons)

  Atom         1           2           3           4           5           6           7           8           9          10
 IAtWgt=          16          16          14           1          12          12          12          12          12           1
 AtmWgt=  15.9949146  15.9949146  14.0030740   1.0078250  12.0000000  12.0000000  12.0000000  12.0000000  12.0000000   1.0078250
 NucSpn=           0           0           2           1           0           0           0           0           0           1
 AtZEff=   5.6000000   5.6000000   4.5500000   1.0000000   3.6000000   3.6000000   3.6000000   3.6000000   3.6000000   1.0000000
 NQMom=    0.0000000   0.0000000   2.0440000   0.0000000   0.0000000   0.0000000   0.0000000   0.0000000   0.0000000   0.0000000
 NMagM=    0.0000000   0.0000000   0.4037610   2.7928460   0.0000000   0.0000000   0.0000000   0.0000000   0.0000000   2.7928460
 AtZNuc=   8.0000000   8.0000000   7.0000000   1.0000000   6.0000000   6.0000000   6.0000000   6.0000000   6.0000000   1.0000000

  Atom        11          12          13          14          15          16          17          18          19          20
 IAtWgt=           1          12          12          12           1           1           1          12           1           1
 AtmWgt=   1.0078250  12.0000000  12.0000000  12.0000000   1.0078250   1.0078250   1.0078250  12.0000000   1.0078250   1.0078250
 NucSpn=           1           0           0           0           1           1           1           0           1           1
 AtZEff=   1.0000000   3.6000000   3.6000000   3.6000000   1.0000000   1.0000000   1.0000000   3.6000000   1.0000000   1.0000000
 NQMom=    0.0000000   0.0000000   0.0000000   0.0000000   0.0000000   0.0000000   0.0000000   0.0000000   0.0000000   0.0000000
 NMagM=    2.7928460   0.0000000   0.0000000   0.0000000   2.7928460   2.7928460   2.7928460   0.0000000   2.7928460   2.7928460
 AtZNuc=   1.0000000   6.0000000   6.0000000   6.0000000   1.0000000   1.0000000   1.0000000   6.0000000   1.0000000   1.0000000

  Atom        21          22          23          24          25          26          27          28          29
 IAtWgt=           1          12           1           1           1          12           1           1           1
 AtmWgt=   1.0078250  12.0000000   1.0078250   1.0078250   1.0078250  12.0000000   1.0078250   1.0078250   1.0078250
 NucSpn=           1           0           1           1           1           0           1           1           1
 AtZEff=   1.0000000   3.6000000   1.0000000   1.0000000   1.0000000   3.6000000   1.0000000   1.0000000   1.0000000
 NQMom=    0.0000000   0.0000000   0.0000000   0.0000000   0.0000000   0.0000000   0.0000000   0.0000000   0.0000000
 NMagM=    2.7928460   0.0000000   2.7928460   2.7928460   2.7928460   0.0000000   2.7928460   2.7928460   2.7928460
 AtZNuc=   1.0000000   6.0000000   1.0000000   1.0000000   1.0000000   6.0000000   1.0000000   1.0000000   1.0000000
 Leave Link  101 at Fri Jan 23 18:40:30 2026, MaxMem=  2147483648 cpu:               0.9 elap:               0.1
 (Enter /data/home/wyx/g16/l202.exe)
                          Input orientation:                          
 ---------------------------------------------------------------------
 Center     Atomic      Atomic             Coordinates (Angstroms)
 Number     Number       Type             X           Y           Z
 ---------------------------------------------------------------------
      1          8           0        2.838809   -1.571128    0.068736
      2          8           0       -3.427353   -1.641177   -0.082262
      3          7           0       -0.656723    1.516031   -0.234645
      4          1           0       -0.967862    2.475653   -0.285417
      5          6           0       -1.245636   -0.761057   -0.207138
      6          6           0        0.684977    1.325013   -0.046062
      7          6           0       -1.630886    0.569721   -0.253025
      8          6           0       -2.215241   -1.841272   -0.160243
      9          6           0        0.201203   -1.090320   -0.234406
     10          1           0        0.423308   -1.907329    0.457948
     11          1           0        0.464529   -1.536889   -1.208585
     12          6           0        1.148518    0.025151    0.026423
     13          6           0        2.516735   -0.399667    0.285161
     14          6           0       -3.018943    1.100641   -0.335118
     15          1           0       -3.018592    2.178649   -0.487134
     16          1           0       -3.570426    0.636659   -1.146450
     17          1           0       -3.576381    0.883996    0.571943
     18          6           0       -1.715791   -3.260995   -0.186936
     19          1           0       -2.536482   -3.926766   -0.429515
     20          1           0       -0.912240   -3.417795   -0.900131
     21          1           0       -1.332299   -3.547828    0.791364
     22          6           0        3.557068    0.531983    0.857866
     23          1           0        4.065357    1.075725    0.059011
     24          1           0        3.145927    1.257569    1.554840
     25          1           0        4.299723   -0.077657    1.367788
     26          6           0        1.468398    2.593322    0.027373
     27          1           0        1.662978    2.895519    1.056446
     28          1           0        2.423192    2.506740   -0.478761
     29          1           0        0.924131    3.407506   -0.449071
 ---------------------------------------------------------------------
                    Distance matrix (angstroms):
                    1          2          3          4          5
     1  O    0.000000
     2  O    6.268372   0.000000
     3  N    4.673471   4.203281   0.000000
     4  H    5.567100   4.799860   1.010079   0.000000
     5  C    4.173130   2.355864   2.352170   3.249550   0.000000
     6  C    3.611067   5.070587   1.368287   2.028088   2.846911
     7  C    4.966381   2.853861   1.358247   2.018224   1.386179
     8  C    5.066442   1.230989   3.702161   4.495271   1.452308
     9  C    2.698154   3.673283   2.743921   3.753063   1.484082
    10  H    2.469648   3.897468   3.655892   4.658162   2.131115
    11  H    2.696280   4.052928   3.395009   4.359412   2.128256
    12  C    2.325292   4.871043   2.355796   3.252886   2.530740
    13  C    1.234055   6.083464   3.743118   4.553618   3.811613
    14  C    6.450946   2.783577   2.400568   2.469830   2.574280
    15  H    6.977031   3.862911   2.466017   2.081921   3.444364
    16  H    6.886893   2.518234   3.177160   3.301002   2.870639
    17  H    6.887344   2.612794   3.094262   3.173769   2.957286
    18  C    4.864710   2.358858   4.893248   5.786037   2.543844
    19  H    5.889910   2.477530   5.761554   6.593353   3.425996
    20  H    4.291765   3.186075   4.985058   5.925681   2.765800
    21  H    4.672010   2.964421   5.210736   6.129812   2.961521
    22  C    2.358325   7.374863   4.462955   5.055684   5.086468
    23  H    2.917250   7.971337   4.751646   5.235621   5.625944
    24  H    3.210039   7.368232   4.210606   4.668355   5.144438
    25  H    2.460134   8.015918   5.447384   6.082757   5.805035
    26  C    4.384334   6.473900   2.396946   2.459074   4.321208
    27  H    4.723249   6.913012   2.991808   2.982986   4.840168
    28  H    4.135396   7.182709   3.244530   3.396704   4.920628
    29  H    5.359190   6.675265   2.474420   2.115365   4.705671
                    6          7          8          9         10
     6  C    0.000000
     7  C    2.444692   0.000000
     8  C    4.295307   2.482532   0.000000
     9  C    2.470495   2.472374   2.531527   0.000000
    10  H    3.281849   3.295599   2.710805   1.093704   0.000000
    11  H    3.096860   3.121164   2.893586   1.103535   1.707705
    12  C    1.381943   2.846003   3.851396   1.486510   2.108702
    13  C    2.537630   4.293264   4.966710   2.471566   2.585602
    14  C    3.721951   1.488394   3.054729   3.896125   4.639604
    15  H    3.826181   2.137565   4.112420   4.595336   5.425410
    16  H    4.448948   2.136470   2.991533   4.247289   4.999588
    17  H    4.328464   2.136420   3.133031   4.338002   4.878730
    18  C    5.178320   3.832227   1.505250   2.896368   2.612285
    19  H    6.173007   4.590169   2.127202   3.946950   3.691351
    20  H    5.076885   4.103106   2.175010   2.664598   2.430962
    21  H    5.339969   4.258417   2.144173   3.072975   2.425811
    22  C    3.113662   5.305692   6.323641   3.884167   3.991319
    23  H    3.391188   5.727180   6.928409   4.439542   4.724646
    24  H    2.936616   5.153586   6.425453   4.169578   4.316527
    25  H    4.127087   6.182092   6.920258   4.515571   4.382020
    26  C    1.492565   3.712027   5.768017   3.904296   4.640417
    27  H    2.153717   4.239527   6.241643   4.437341   4.996232
    28  H    2.145949   4.498727   6.365668   4.235066   4.935683
    29  H    2.134570   3.823555   6.122806   4.560608   5.414885
                   11         12         13         14         15
    11  H    0.000000
    12  C    2.105482   0.000000
    13  C    2.781385   1.455827   0.000000
    14  C    4.455792   4.319158   5.768830   0.000000
    15  H    5.143719   4.718697   6.154998   1.088674   0.000000
    16  H    4.583561   4.900817   6.338534   1.085206   1.765489
    17  H    5.035863   4.833206   6.233466   1.086477   1.763207
    18  C    2.961436   4.364464   5.130726   4.554562   5.601530
    19  H    3.914656   5.422615   6.203724   5.051386   6.124691
    20  H    2.351264   4.118143   4.719310   5.017340   5.993953
    21  H    3.357419   4.416533   4.998222   5.071685   6.104972
    22  C    4.256084   2.597939   1.509389   6.707496   6.910849
    23  H    4.625853   3.100438   2.150850   7.095299   7.190066
    24  H    4.757668   2.800813   2.180458   6.449976   6.558913
    25  H    4.845180   3.426357   2.110644   7.605994   7.879682
    26  C    4.426510   2.588016   3.181737   4.742966   4.535389
    27  H    5.119852   3.092673   3.490277   5.203693   4.981329
    28  H    4.551916   2.835188   3.006581   5.622685   5.451672
    29  H    5.023459   3.422977   4.191664   4.569731   4.129964
                   16         17         18         19         20
    16  H    0.000000
    17  H    1.736112   0.000000
    18  C    4.421769   4.606370   0.000000
    19  H    4.733697   5.022722   1.084264   0.000000
    20  H    4.854402   5.269730   1.085784   1.765982   0.000000
    21  H    5.125843   4.972435   1.089225   1.756188   1.747717
    22  C    7.404688   7.147850   6.578855   7.659579   6.218200
    23  H    7.742809   7.661333   7.231134   8.297461   6.774079
    24  H    7.265803   6.804048   6.862034   7.943851   6.659927
    25  H    8.292821   7.974407   6.981204   8.048580   6.592764
    26  C    5.531378   5.354264   6.667684   7.665465   6.531556
    27  H    6.110951   5.633103   7.131952   8.147829   7.093509
    28  H    6.313990   6.303345   7.105147   8.123472   6.811958
    29  H    5.325878   5.259770   7.176824   8.109733   7.082404
                   21         22         23         24         25
    21  H    0.000000
    22  C    6.368296   0.000000
    23  H    7.144807   1.091871   0.000000
    24  H    6.612809   1.086869   1.765198   0.000000
    25  H    6.640333   1.087758   1.760146   1.774560   0.000000
    26  C    6.792739   3.049816   3.008039   2.632773   4.116703
    27  H    7.110462   3.035344   3.174579   2.265042   3.986118
    28  H    7.237038   2.640438   2.243593   2.493653   3.689203
    29  H    7.416659   4.112064   3.944953   3.684327   5.180923
                   26         27         28         29
    26  C    0.000000
    27  H    1.090035   0.000000
    28  H    1.084112   1.756683   0.000000
    29  H    1.089092   1.753456   1.749127   0.000000
 Stoichiometry    C11H15NO2
 Framework group  C1[X(C11H15NO2)]
 Deg. of freedom    81
 Full point group                 C1      NOp   1
 RotChk:  IX=0 Diff= 4.91D-16
 Largest Abelian subgroup         C1      NOp   1
 Largest concise Abelian subgroup C1      NOp   1
                         Standard orientation:                         
 ---------------------------------------------------------------------
 Center     Atomic      Atomic             Coordinates (Angstroms)
 Number     Number       Type             X           Y           Z
 ---------------------------------------------------------------------
      1          8           0        2.285597   -2.283164   -0.251823
      2          8           0       -3.619906   -0.255440    0.301221
      3          7           0        0.020297    1.802599   -0.124185
      4          1           0        0.046552    2.812328   -0.128363
      5          6           0       -1.294051   -0.146954   -0.057556
      6          6           0        1.231404    1.166796   -0.089780
      7          6           0       -1.211862    1.236722   -0.044177
      8          6           0       -2.560327   -0.843630    0.085218
      9          6           0       -0.052987   -0.937407   -0.251062
     10          1           0       -0.049288   -1.814519    0.402275
     11          1           0       -0.055861   -1.398047   -1.253854
     12          6           0        1.235621   -0.215133   -0.085162
     13          6           0        2.400072   -1.083354    0.013213
     14          6           0       -2.341214    2.202840    0.036442
     15          1           0       -1.993831    3.225283   -0.101926
     16          1           0       -3.096206    1.989143   -0.713220
     17          1           0       -2.843573    2.140145    0.997763
     18          6           0       -2.572903   -2.345544   -0.014154
     19          1           0       -3.589867   -2.687395   -0.170842
     20          1           0       -1.945970   -2.725923   -0.814901
     21          1           0       -2.210684   -2.791093    0.911423
     22          6           0        3.745712   -0.580376    0.476377
     23          1           0        4.323082   -0.198580   -0.368051
     24          1           0        3.675798    0.205756    1.223633
     25          1           0        4.287923   -1.426623    0.892420
     26          6           0        2.398882    2.096712   -0.089861
     27          1           0        2.787500    2.266260    0.914333
     28          1           0        3.212118    1.721991   -0.701033
     29          1           0        2.114608    3.067887   -0.492514
 ---------------------------------------------------------------------
 Rotational constants (GHZ):           1.0767913           0.4902463           0.3439504
 Leave Link  202 at Fri Jan 23 18:40:30 2026, MaxMem=  2147483648 cpu:               0.0 elap:               0.0
 (Enter /data/home/wyx/g16/l301.exe)
 Standard basis: TZVP (5D, 7F)
 Ernie: Thresh=  0.10000D-02 Tol=  0.10000D-05 Strict=F.
 There are   370 symmetry adapted cartesian basis functions of A   symmetry.
 There are   356 symmetry adapted basis functions of A   symmetry.
   356 basis functions,   610 primitive gaussians,   370 cartesian basis functions
    52 alpha electrons       52 beta electrons
       nuclear repulsion energy       899.9703860147 Hartrees.
 IExCor=20419 DFT=T Ex+Corr=CAM-B3LYP ExCW=0 ScaHFX=  1.000000
 ScaDFX=  1.000000  1.000000  1.000000  0.810000 ScalE2=  1.000000  1.000000
 IRadAn=      5 IRanWt=     -1 IRanGd=            0 ICorTp=0 IEmpDi=141
 HFx  wShort=  0.000000 wLong=  0.330000 cFull=  0.190000 cShort=  0.000000 cLong=  0.460000
 DFx  wShort=  0.000000 wLong=  0.330000 cFull=  0.190000 cShort=  0.000000 cLong=  0.460000
 NAtoms=   29 NActive=   29 NUniq=   29 SFac= 1.00D+00 NAtFMM=   60 NAOKFM=F Big=F
 Integral buffers will be    131072 words long.
 Raffenetti 1 integral format.
 Two-electron integral symmetry is turned on.
 R6Disp:  Grimme-D3(BJ) Dispersion energy=       -0.0261533002 Hartrees.
 Nuclear repulsion after empirical dispersion term =      899.9442327145 Hartrees.
 ------------------------------------------------------------------------------
 Polarizable Continuum Model (PCM)
 =================================
 Model                : PCM.
 Atomic radii         : UFF (Universal Force Field).
 Polarization charges : Total charges.
 Charge compensation  : None.
 Solution method      : On-the-fly selection.
 Cavity type          : Scaled VdW (van der Waals Surface) (Alpha=1.100).
 Cavity algorithm     : GePol (No added spheres)
                        Default sphere list used, NSphG=   29.
                        Lebedev-Laikov grids with approx.  5.0 points / Ang**2.
                        Smoothing algorithm: York/Karplus (Gamma=1.0000).
                        Polarization charges: spherical gaussians, with
                                              point-specific exponents (IZeta= 3).
                        Self-potential: point-specific (ISelfS= 7).
                        Self-field    : sphere-specific E.n sum rule (ISelfD= 2).
 1st derivatives      : Analytical E(r).r(x)/FMM algorithm (CHGder, D1EAlg=3).
                        Cavity 1st derivative terms included.
 Solvent              : TetraHydroFuran, Eps=   7.425700 Eps(inf)=   1.974025
 ------------------------------------------------------------------------------
 GePol: Number of generator spheres                  =      29
 GePol: Total number of spheres                      =      29
 GePol: Number of exposed spheres                    =      29 (100.00%)
 GePol: Number of points                             =    2122
 GePol: Average weight of points                     =       0.13
 GePol: Minimum weight of points                     =   0.24D-09
 GePol: Maximum weight of points                     =    0.20577
 GePol: Number of points with low weight             =     143
 GePol: Fraction of low-weight points (<1% of avg)   =       6.74%
 GePol: Cavity surface area                          =    268.731 Ang**2
 GePol: Cavity volume                                =    286.787 Ang**3
 Leave Link  301 at Fri Jan 23 18:40:31 2026, MaxMem=  2147483648 cpu:               0.6 elap:               0.0
 (Enter /data/home/wyx/g16/l302.exe)
 NPDir=0 NMtPBC=     1 NCelOv=     1 NCel=       1 NClECP=     1 NCelD=      1
         NCelK=      1 NCelE2=     1 NClLst=     1 CellRange=     0.0.
 One-electron integrals computed using PRISM.
 One-electron integral symmetry used in STVInt
 NBasis=   356 RedAO= T EigKep=  4.40D-05  NBF=   356
 NBsUse=   356 1.00D-06 EigRej= -1.00D+00 NBFU=   356
 Precomputing XC quadrature grid using
 IXCGrd= 4 IRadAn=           5 IRanWt=          -1 IRanGd=           0 AccXCQ= 0.00D+00.
 Generated NRdTot=       0 NPtTot=           0 NUsed=           0 NTot=          32
 NSgBfM=   366   366   366   366   366 MxSgAt=    29 MxSgA2=    29.
 Leave Link  302 at Fri Jan 23 18:40:31 2026, MaxMem=  2147483648 cpu:               3.1 elap:               0.2
 (Enter /data/home/wyx/g16/l303.exe)
 DipDrv:  MaxL=1.
 Leave Link  303 at Fri Jan 23 18:40:31 2026, MaxMem=  2147483648 cpu:               0.5 elap:               0.0
 (Enter /data/home/wyx/g16/l308.exe)
 Leave Link  308 at Fri Jan 23 18:40:31 2026, MaxMem=  2147483648 cpu:               0.7 elap:               0.1
 (Enter /data/home/wyx/g16/l401.exe)
 Initial guess from the checkpoint file:  "DDL-S2-cLR-6.chk"
 B after Tr=    -0.000000    0.000000   -0.000000
         Rot=    1.000000    0.000000   -0.000000    0.000000 Ang=   0.00 deg.
 Guess basis will be translated and rotated to current coordinates.
 JPrj=2 DoOrth=T DoCkMO=T.
 Leave Link  401 at Fri Jan 23 18:40:32 2026, MaxMem=  2147483648 cpu:               2.2 elap:               0.2
 (Enter /data/home/wyx/g16/l502.exe)
 Integral symmetry usage will be decided dynamically.
 Closed shell SCF:
 Using DIIS extrapolation, IDIIS=  1040.
 NGot=  2147483648 LenX=  2147200095 LenY=  2147062754
 Requested convergence on RMS density matrix=1.00D-08 within 128 cycles.
 Requested convergence on MAX density matrix=1.00D-06.
 Requested convergence on             energy=1.00D-06.
 No special actions if energy rises.
 Fock matrices will be formed incrementally for  20 cycles.

 Cycle   1  Pass 1  IDiag  1:
 FoFJK:  IHMeth= 1 ICntrl=       0 DoSepK=T KAlg= 0 I1Cent=           0 FoldK=F
 IRaf=         1 NMat=       1 IRICut=       1 DoRegI=T DoRafI=F ISym2E= 0 IDoP0=0 IntGTp=1.
 FoFCou: FMM=F IPFlag=           0 FMFlag=      100000 FMFlg1=           0
         NFxFlg=           0 DoJE=T BraDBF=F KetDBF=F FulRan=T
         wScrn=  0.000000 ICntrl=       500 IOpCl=  0 I1Cent=           0 NGrid=           0
         NMat0=    1 NMatS0=      1 NMatT0=    0 NMatD0=    1 NMtDS0=    0 NMtDT0=    0
 Symmetry not used in FoFCou.
 Inv3:  Mode=1 IEnd=    13508652.
 Iteration    1 A*A^-1 deviation from unit magnitude is 2.89D-15 for    160.
 Iteration    1 A*A^-1 deviation from orthogonality  is 1.76D-15 for   1355    922.
 Iteration    1 A^-1*A deviation from unit magnitude is 3.11D-15 for    370.
 Iteration    1 A^-1*A deviation from orthogonality  is 1.62D-15 for    740    225.
 E= -633.323947645240    
 DIIS: error= 1.40D-08 at cycle   1 NSaved=   1.
 NSaved= 1 IEnMin= 1 EnMin= -633.323947645240     IErMin= 1 ErrMin= 1.40D-08
 ErrMax= 1.40D-08  0.00D+00 EMaxC= 1.00D-01 BMatC= 5.91D-14 BMatP= 5.91D-14
 IDIUse=1 WtCom= 1.00D+00 WtEn= 0.00D+00
 Coeff-Com:  0.100D+01
 Coeff:      0.100D+01
 Gap=     0.224 Goal=   None    Shift=    0.000
 RMSDP=3.06D-09 MaxDP=8.83D-08              OVMax= 2.64D-07

 Error on total polarization charges =  0.01425
 SCF Done:  E(RCAM-B3LYP) =  -633.323947645     A.U. after    1 cycles
            NFock=  1  Conv=0.31D-08     -V/T= 2.0042
 KE= 6.306983281927D+02 PE=-3.275901835980D+03 EE= 1.111935327428D+03
 Leave Link  502 at Fri Jan 23 18:40:37 2026, MaxMem=  2147483648 cpu:              85.2 elap:               5.6
 (Enter /data/home/wyx/g16/l801.exe)
 DoSCS=F DFT=T ScalE2(SS,OS)=  1.000000  1.000000
 ExpMin= 9.52D-02 ExpMax= 2.70D+04 ExpMxC= 9.22D+02 IAcc=3 IRadAn=         5 AccDes= 0.00D+00
 HarFok:  IExCor=  205 AccDes= 0.00D+00 IRadAn=         5 IDoV=-2 UseB2=F ITyADJ=14
 ICtDFT= 12500011 ScaDFX=  1.000000  1.000000  1.000000  1.000000
 Largest valence mixing into a core orbital is  5.60D-05
 Largest core mixing into a valence orbital is  1.16D-05
 Range of M.O.s used for correlation:    15   356
 NBasis=   356 NAE=    52 NBE=    52 NFC=    14 NFV=     0
 NROrb=    342 NOA=    38 NOB=    38 NVA=   304 NVB=   304

 **** Warning!!: The largest alpha MO coefficient is  0.60897548D+02

 Leave Link  801 at Fri Jan 23 18:40:38 2026, MaxMem=  2147483648 cpu:               1.0 elap:               0.1
 (Enter /data/home/wyx/g16/l914.exe)
 RHF ground state
 Two-electron integrals replicated using symmetry.
 MDV=  2147483648 DFT=T DoStab=F Mixed=T DoRPA=T DoScal=F NonHer=T
 NEqPCM:  Using equilibrium solvation (IEInf=0, Eps=   7.4257, EpsInf=   1.9740)
 Making orbital integer symmetry assigments:
 Orbital symmetries:
       Occupied  (A) (A) (A) (A) (A) (A) (A) (A) (A) (A) (A) (A)
                 (A) (A) (A) (A) (A) (A) (A) (A) (A) (A) (A) (A)
                 (A) (A) (A) (A) (A) (A) (A) (A) (A) (A) (A) (A)
                 (A) (A) (A) (A) (A) (A) (A) (A) (A) (A) (A) (A)
                 (A) (A) (A) (A)
       Virtual   (A) (A) (A) (A) (A) (A) (A) (A) (A) (A) (A) (A)
                 (A) (A) (A) (A) (A) (A) (A) (A) (A) (A) (A) (A)
                 (A) (A) (A) (A) (A) (A) (A) (A) (A) (A) (A) (A)
                 (A) (A) (A) (A) (A) (A) (A) (A) (A) (A) (A) (A)
                 (A) (A) (A) (A) (A) (A) (A) (A) (A) (A) (A) (A)
                 (A) (A) (A) (A) (A) (A) (A) (A) (A) (A) (A) (A)
                 (A) (A) (A) (A) (A) (A) (A) (A) (A) (A) (A) (A)
                 (A) (A) (A) (A) (A) (A) (A) (A) (A) (A) (A) (A)
                 (A) (A) (A) (A) (A) (A) (A) (A) (A) (A) (A) (A)
                 (A) (A) (A) (A) (A) (A) (A) (A) (A) (A) (A) (A)
                 (A) (A) (A) (A) (A) (A) (A) (A) (A) (A) (A) (A)
                 (A) (A) (A) (A) (A) (A) (A) (A) (A) (A) (A) (A)
                 (A) (A) (A) (A) (A) (A) (A) (A) (A) (A) (A) (A)
                 (A) (A) (A) (A) (A) (A) (A) (A) (A) (A) (A) (A)
                 (A) (A) (A) (A) (A) (A) (A) (A) (A) (A) (A) (A)
                 (A) (A) (A) (A) (A) (A) (A) (A) (A) (A) (A) (A)
                 (A) (A) (A) (A) (A) (A) (A) (A) (A) (A) (A) (A)
                 (A) (A) (A) (A) (A) (A) (A) (A) (A) (A) (A) (A)
                 (A) (A) (A) (A) (A) (A) (A) (A) (A) (A) (A) (A)
                 (A) (A) (A) (A) (A) (A) (A) (A) (A) (A) (A) (A)
                 (A) (A) (A) (A) (A) (A) (A) (A) (A) (A) (A) (A)
                 (A) (A) (A) (A) (A) (A) (A) (A) (A) (A) (A) (A)
                 (A) (A) (A) (A) (A) (A) (A) (A) (A) (A) (A) (A)
                 (A) (A) (A) (A) (A) (A) (A) (A) (A) (A) (A) (A)
                 (A) (A) (A) (A) (A) (A) (A) (A) (A) (A) (A) (A)
                 (A) (A) (A) (A)
 PCM Corrected Linear-Response:
 Compute the excitation energies in the ground state reaction field.
    24 initial guesses have been made.
 Convergence on wavefunction:    0.000001000000000
 Davidson Disk Diagonalization:  ConvIn= 1.00D-06 SkipCon=T Conv= 1.00D-06.
 Max sub-space:  2000 roots to seek:    24 dimension of matrix:        23104
 Iteration     1 Dimension    24 NMult     0 NNew     24
 CISAX will form    24 AO SS matrices at one time.
 NMat=    24 NSing=    24 JSym2X= 0.
 FoFJK:  IHMeth= 1 ICntrl=       0 DoSepK=T KAlg= 0 I1Cent=           0 FoldK=F
 IRaf=         1 NMat=      48 IRICut=       1 DoRegI=T DoRafI=F ISym2E= 0 IDoP0=3 IntGTp=3.
 FoFCou: FMM=F IPFlag=           0 FMFlag=      100000 FMFlg1=           0
         NFxFlg=           0 DoJE=F BraDBF=F KetDBF=F FulRan=T
         wScrn=  0.000000 ICntrl=       500 IOpCl=  0 I1Cent=           0 NGrid=           0
         NMat0=   24 NMatS0=     24 NMatT0=    0 NMatD0=   24 NMtDS0=    0 NMtDT0=    0
 Symmetry not used in FoFCou.
 New state      2 was old state      3
 New state      3 was old state      4
 New state      4 was old state      2
 New state      5 was old state      6
 New state      6 was old state      5
 Excitation Energies [eV] at current iteration:
 Root      1 :     3.675756770240659
 Root      2 :     4.210878691484858
 Root      3 :     4.418432832193223
 Root      4 :     5.383788492280543
 Root      5 :     5.977612444319544
 Root      6 :     6.372198434793507
 Root      7 :     6.546834061460759
 Root      8 :     6.719166083069410
 Root      9 :     6.878331834206965
 Root     10 :     6.983432857568892
 Root     11 :     7.166462432928752
 Root     12 :     7.348372992010038
 Root     13 :     7.407364158626285
 Root     14 :     7.446287285437273
 Root     15 :     7.836553988950762
 Root     16 :     7.932647300516276
 Root     17 :     8.027948541771257
 Root     18 :     8.126167057258376
 Root     19 :     8.220401044700091
 Root     20 :     8.323217711712754
 Root     21 :     8.432574941307571
 Root     22 :     8.638927524193544
 Root     23 :     8.756007288676788
 Root     24 :     8.954260629157885
 Iteration     2 Dimension    36 NMult    24 NNew     12
 CISAX will form    12 AO SS matrices at one time.
 NMat=    12 NSing=    12 JSym2X= 0.
 Root      1 not converged, maximum delta is    0.040251958948718
 Root      2 not converged, maximum delta is    0.075377433376092
 Root      3 not converged, maximum delta is    0.091094882871361
 Root      4 not converged, maximum delta is    0.197053461895524
 New state      5 was old state      6
 Root      5 not converged, maximum delta is    0.187164970327548
 New state      6 was old state      5
 Root      6 not converged, maximum delta is    0.089147654840442
 Excitation Energies [eV] at current iteration:
 Root      1 :     3.207861509332973   Change is   -0.467895260907687
 Root      2 :     3.990113899805422   Change is   -0.220764791679436
 Root      3 :     4.154856257325580   Change is   -0.263576574867643
 Root      4 :     5.069832234573777   Change is   -0.313956257706766
 Root      5 :     5.562116374791699   Change is   -0.810082060001808
 Root      6 :     5.873638010261041   Change is   -0.103974434058503
 Iteration     3 Dimension    48 NMult    36 NNew     12
 CISAX will form    12 AO SS matrices at one time.
 NMat=    12 NSing=    12 JSym2X= 0.
 Root      1 not converged, maximum delta is    0.009050588919549
 Root      2 not converged, maximum delta is    0.016224113789403
 Root      3 not converged, maximum delta is    0.013773215963711
 Root      4 not converged, maximum delta is    0.024887034370316
 Root      5 not converged, maximum delta is    0.025547324608274
 Root      6 not converged, maximum delta is    0.006326958935239
 Excitation Energies [eV] at current iteration:
 Root      1 :     3.188047903806547   Change is   -0.019813605526425
 Root      2 :     3.977033916283963   Change is   -0.013079983521458
 Root      3 :     4.140608925383243   Change is   -0.014247331942337
 Root      4 :     5.049346691421361   Change is   -0.020485543152416
 Root      5 :     5.516533384686810   Change is   -0.045582990104888
 Root      6 :     5.868761577616883   Change is   -0.004876432644157
 Iteration     4 Dimension    60 NMult    48 NNew     12
 CISAX will form    12 AO SS matrices at one time.
 NMat=    12 NSing=    12 JSym2X= 0.
 Root      1 not converged, maximum delta is    0.002611253443419
 Root      2 not converged, maximum delta is    0.001798953778262
 Root      3 not converged, maximum delta is    0.002395625272983
 Root      4 not converged, maximum delta is    0.002918835048407
 Root      5 not converged, maximum delta is    0.004594789446499
 Root      6 not converged, maximum delta is    0.001930918434391
 Excitation Energies [eV] at current iteration:
 Root      1 :     3.186495834231676   Change is   -0.001552069574871
 Root      2 :     3.976403841399501   Change is   -0.000630074884463
 Root      3 :     4.139660185143488   Change is   -0.000948740239755
 Root      4 :     5.047269332565392   Change is   -0.002077358855969
 Root      5 :     5.511057968665211   Change is   -0.005475416021599
 Root      6 :     5.868447454197746   Change is   -0.000314123419138
 Iteration     5 Dimension    72 NMult    60 NNew     12
 CISAX will form    12 AO SS matrices at one time.
 NMat=    12 NSing=    12 JSym2X= 0.
 Root      1 not converged, maximum delta is    0.000739045832206
 Root      2 not converged, maximum delta is    0.000360474673236
 Root      3 not converged, maximum delta is    0.000518190419935
 Root      4 not converged, maximum delta is    0.000616152886796
 Root      5 not converged, maximum delta is    0.001219430700784
 Root      6 not converged, maximum delta is    0.000312797181947
 Excitation Energies [eV] at current iteration:
 Root      1 :     3.186407378482534   Change is   -0.000088455749142
 Root      2 :     3.976351761752448   Change is   -0.000052079647053
 Root      3 :     4.139611169957960   Change is   -0.000049015185528
 Root      4 :     5.047124043244818   Change is   -0.000145289320575
 Root      5 :     5.510646128314699   Change is   -0.000411840350512
 Root      6 :     5.868423397515081   Change is   -0.000024056682665
 Iteration     6 Dimension    84 NMult    72 NNew     12
 CISAX will form    12 AO SS matrices at one time.
 NMat=    12 NSing=    12 JSym2X= 0.
 Root      1 not converged, maximum delta is    0.000161844415265
 Root      2 not converged, maximum delta is    0.000134568204762
 Root      3 not converged, maximum delta is    0.000128941061261
 Root      4 not converged, maximum delta is    0.000266117088286
 Root      5 not converged, maximum delta is    0.000587165462181
 Root      6 not converged, maximum delta is    0.000131012148467
 Excitation Energies [eV] at current iteration:
 Root      1 :     3.186402775772841   Change is   -0.000004602709693
 Root      2 :     3.976348731068941   Change is   -0.000003030683507
 Root      3 :     4.139608348782013   Change is   -0.000002821175947
 Root      4 :     5.047113950634992   Change is   -0.000010092609825
 Root      5 :     5.510613039522043   Change is   -0.000033088792656
 Root      6 :     5.868421165530609   Change is   -0.000002231984472
 Iteration     7 Dimension    96 NMult    84 NNew     12
 CISAX will form    12 AO SS matrices at one time.
 NMat=    12 NSing=    12 JSym2X= 0.
 Root      1 not converged, maximum delta is    0.000017930822874
 Root      2 not converged, maximum delta is    0.000029329777499
 Root      3 not converged, maximum delta is    0.000033955929010
 Root      4 not converged, maximum delta is    0.000074241899122
 Root      5 not converged, maximum delta is    0.000249033787483
 Root      6 not converged, maximum delta is    0.000058002431954
 Excitation Energies [eV] at current iteration:
 Root      1 :     3.186402536723471   Change is   -0.000000239049370
 Root      2 :     3.976348571019029   Change is   -0.000000160049912
 Root      3 :     4.139608182129207   Change is   -0.000000166652806
 Root      4 :     5.047113077212193   Change is   -0.000000873422799
 Root      5 :     5.510609099134384   Change is   -0.000003940387659
 Root      6 :     5.868420967183542   Change is   -0.000000198347068
 Iteration     8 Dimension   108 NMult    96 NNew     12
 CISAX will form    12 AO SS matrices at one time.
 NMat=    12 NSing=    12 JSym2X= 0.
 Root      1 not converged, maximum delta is    0.000002708034312
 Root      2 not converged, maximum delta is    0.000002953318954
 Root      3 not converged, maximum delta is    0.000002847262989
 Root      4 not converged, maximum delta is    0.000025662252452
 Root      5 not converged, maximum delta is    0.000037944407546
 Root      6 not converged, maximum delta is    0.000012875101507
 Excitation Energies [eV] at current iteration:
 Root      1 :     3.186402527405706   Change is   -0.000000009317765
 Root      2 :     3.976348563533219   Change is   -0.000000007485810
 Root      3 :     4.139608173307188   Change is   -0.000000008822019
 Root      4 :     5.047113006019570   Change is   -0.000000071192623
 Root      5 :     5.510608799522056   Change is   -0.000000299612328
 Root      6 :     5.868420950570409   Change is   -0.000000016613132
 Iteration     9 Dimension   120 NMult   108 NNew     12
 CISAX will form    12 AO SS matrices at one time.
 NMat=    12 NSing=    12 JSym2X= 0.
 Root      1 has converged.
 Root      2 has converged.
 Root      3 has converged.
 Root      4 not converged, maximum delta is    0.000005330016742
 Root      5 not converged, maximum delta is    0.000010380577514
 Root      6 not converged, maximum delta is    0.000003984130792
 Excitation Energies [eV] at current iteration:
 Root      1 :     3.186402527126297   Change is   -0.000000000279408
 Root      2 :     3.976348563261272   Change is   -0.000000000271947
 Root      3 :     4.139608173022870   Change is   -0.000000000284318
 Root      4 :     5.047113002068877   Change is   -0.000000003950693
 Root      5 :     5.510608781784947   Change is   -0.000000017737109
 Root      6 :     5.868420949238107   Change is   -0.000000001332302
 Iteration    10 Dimension   126 NMult   120 NNew      6
 CISAX will form     6 AO SS matrices at one time.
 NMat=     6 NSing=     6 JSym2X= 0.
 Root      1 has converged.
 Root      2 has converged.
 Root      3 has converged.
 Root      4 has converged.
 Root      5 not converged, maximum delta is    0.000002123794438
 Root      6 has converged.
 Excitation Energies [eV] at current iteration:
 Root      1 :     3.186402527125756   Change is   -0.000000000000542
 Root      2 :     3.976348563259307   Change is   -0.000000000001964
 Root      3 :     4.139608173021539   Change is   -0.000000000001330
 Root      4 :     5.047113001872019   Change is   -0.000000000196857
 Root      5 :     5.510608780821122   Change is   -0.000000000963825
 Root      6 :     5.868420949141449   Change is   -0.000000000096658
 Iteration    11 Dimension   128 NMult   126 NNew      2
 CISAX will form     2 AO SS matrices at one time.
 NMat=     2 NSing=     2 JSym2X= 0.
 Root      1 has converged.
 Root      2 has converged.
 Root      3 has converged.
 Root      4 has converged.
 Root      5 has converged.
 Root      6 has converged.
 Excitation Energies [eV] at current iteration:
 Root      1 :     3.186402527125575   Change is   -0.000000000000181
 Root      2 :     3.976348563259204   Change is   -0.000000000000103
 Root      3 :     4.139608173021539   Change is    0.000000000000000
 Root      4 :     5.047113001868599   Change is   -0.000000000003421
 Root      5 :     5.510608780770490   Change is   -0.000000000050632
 Root      6 :     5.868420949139740   Change is   -0.000000000001709
 Convergence achieved on expansion vectors.
 PCM Corrected Linear-Response:
 The state of interest is root number   2
 Excitation energy =    3.9763 eV, Total energy =  -633.177819524    
 Recompute the excitation energies using the linear response reaction field.
 Convergence on wavefunction:    0.000001000000000
 Davidson Disk Diagonalization:  ConvIn= 1.00D-06 SkipCon=T Conv= 1.00D-06.
 Max sub-space:  2000 roots to seek:     6 dimension of matrix:        23104
 Iteration     1 Dimension     6 NMult     0 NNew      6
 CISAX will form     6 AO SS matrices at one time.
 NMat=     6 NSing=     6 JSym2X= 0.
 Excitation Energies [eV] at current iteration:
 Root      1 :     3.297297718862731
 Root      2 :     4.002644549301616
 Root      3 :     4.166561836915318
 Root      4 :     5.123787080777430
 Root      5 :     5.690477344675676
 Root      6 :     5.846293267998023
 Iteration     2 Dimension    18 NMult     6 NNew     12
 CISAX will form    12 AO SS matrices at one time.
 NMat=    12 NSing=    12 JSym2X= 0.
 Root      1 not converged, maximum delta is    0.020253422361998
 Root      2 not converged, maximum delta is    0.007132627176207
 Root      3 not converged, maximum delta is    0.006112274893771
 Root      4 not converged, maximum delta is    0.215379802124346
 Root      5 not converged, maximum delta is    0.257604798360523
 Root      6 not converged, maximum delta is    0.106179117064501
 Excitation Energies [eV] at current iteration:
 Root      1 :     3.072245571321421   Change is   -0.225052147541309
 Root      2 :     3.972305724678118   Change is   -0.030338824623498
 Root      3 :     4.134615800568813   Change is   -0.031946036346505
 Root      4 :     4.925778165325750   Change is   -0.198008915451681
 Root      5 :     5.381193883867144   Change is   -0.309283460808532
 Root      6 :     5.825610733306109   Change is   -0.020682534691914
 Iteration     3 Dimension    30 NMult    18 NNew     12
 CISAX will form    12 AO SS matrices at one time.
 NMat=    12 NSing=    12 JSym2X= 0.
 Root      1 not converged, maximum delta is    0.002462143341991
 Root      2 not converged, maximum delta is    0.000826941981361
 Root      3 not converged, maximum delta is    0.001058327491131
 Root      4 not converged, maximum delta is    0.011822790286715
 Root      5 not converged, maximum delta is    0.012713103321566
 Root      6 not converged, maximum delta is    0.009480599923897
 Excitation Energies [eV] at current iteration:
 Root      1 :     3.069451708327407   Change is   -0.002793862994014
 Root      2 :     3.972041926445077   Change is   -0.000263798233041
 Root      3 :     4.134318910635096   Change is   -0.000296889933718
 Root      4 :     4.918064572598102   Change is   -0.007713592727648
 Root      5 :     5.372528554296800   Change is   -0.008665329570343
 Root      6 :     5.824352141120462   Change is   -0.001258592185648
 Iteration     4 Dimension    42 NMult    30 NNew     12
 CISAX will form    12 AO SS matrices at one time.
 NMat=    12 NSing=    12 JSym2X= 0.
 Root      1 not converged, maximum delta is    0.001533882699876
 Root      2 not converged, maximum delta is    0.000193350679151
 Root      3 not converged, maximum delta is    0.000181339169952
 Root      4 not converged, maximum delta is    0.001977796662367
 Root      5 not converged, maximum delta is    0.003703590064567
 Root      6 not converged, maximum delta is    0.011154853790812
 Excitation Energies [eV] at current iteration:
 Root      1 :     3.069096848062967   Change is   -0.000354860264440
 Root      2 :     3.972029203681762   Change is   -0.000012722763315
 Root      3 :     4.134302274079610   Change is   -0.000016636555485
 Root      4 :     4.916974197823113   Change is   -0.001090374774989
 Root      5 :     5.371372302001820   Change is   -0.001156252294981
 Root      6 :     5.823884683004138   Change is   -0.000467458116324
 Iteration     5 Dimension    54 NMult    42 NNew     12
 CISAX will form    12 AO SS matrices at one time.
 NMat=    12 NSing=    12 JSym2X= 0.
 Root      1 not converged, maximum delta is    0.000452646644443
 Root      2 not converged, maximum delta is    0.000088893329876
 Root      3 not converged, maximum delta is    0.000087532055282
 Root      4 not converged, maximum delta is    0.000631316401909
 Root      5 not converged, maximum delta is    0.000576021594629
 Root      6 not converged, maximum delta is    0.004329770435612
 Excitation Energies [eV] at current iteration:
 Root      1 :     3.069072618925455   Change is   -0.000024229137513
 Root      2 :     3.972028408764527   Change is   -0.000000794917236
 Root      3 :     4.134300917818717   Change is   -0.000001356260894
 Root      4 :     4.916874779880988   Change is   -0.000099417942124
 Root      5 :     5.371247908418343   Change is   -0.000124393583477
 Root      6 :     5.823786737202234   Change is   -0.000097945801905
 Iteration     6 Dimension    66 NMult    54 NNew     12
 CISAX will form    12 AO SS matrices at one time.
 NMat=    12 NSing=    12 JSym2X= 0.
 Root      1 not converged, maximum delta is    0.000054431941684
 Root      2 not converged, maximum delta is    0.000025739448407
 Root      3 not converged, maximum delta is    0.000025379851994
 Root      4 not converged, maximum delta is    0.000302227997457
 Root      5 not converged, maximum delta is    0.000285157948461
 Root      6 not converged, maximum delta is    0.000741142312929
 Excitation Energies [eV] at current iteration:
 Root      1 :     3.069071109867083   Change is   -0.000001509058371
 Root      2 :     3.972028330764887   Change is   -0.000000077999639
 Root      3 :     4.134300801078401   Change is   -0.000000116740315
 Root      4 :     4.916864758109890   Change is   -0.000010021771098
 Root      5 :     5.371234097633975   Change is   -0.000013810784367
 Root      6 :     5.823775650695262   Change is   -0.000011086506971
 Iteration     7 Dimension    78 NMult    66 NNew     12
 CISAX will form    12 AO SS matrices at one time.
 NMat=    12 NSing=    12 JSym2X= 0.
 Root      1 not converged, maximum delta is    0.000009259324345
 Root      2 not converged, maximum delta is    0.000004934170101
 Root      3 not converged, maximum delta is    0.000005371322866
 Root      4 not converged, maximum delta is    0.000114781585037
 Root      5 not converged, maximum delta is    0.000114579779823
 Root      6 not converged, maximum delta is    0.000104085307372
 Excitation Energies [eV] at current iteration:
 Root      1 :     3.069071058027137   Change is   -0.000000051839946
 Root      2 :     3.972028326794491   Change is   -0.000000003970396
 Root      3 :     4.134300794251936   Change is   -0.000000006826466
 Root      4 :     4.916863851930495   Change is   -0.000000906179395
 Root      5 :     5.371232718917225   Change is   -0.000001378716750
 Root      6 :     5.823774436767804   Change is   -0.000001213927458
 Iteration     8 Dimension    90 NMult    78 NNew     12
 CISAX will form    12 AO SS matrices at one time.
 NMat=    12 NSing=    12 JSym2X= 0.
 Root      1 not converged, maximum delta is    0.000002182477542
 Root      2 not converged, maximum delta is    0.000001365088310
 Root      3 has converged.
 Root      4 not converged, maximum delta is    0.000015776405581
 Root      5 not converged, maximum delta is    0.000029589746159
 Root      6 not converged, maximum delta is    0.000044619276296
 Excitation Energies [eV] at current iteration:
 Root      1 :     3.069071055926943   Change is   -0.000000002100194
 Root      2 :     3.972028326640715   Change is   -0.000000000153776
 Root      3 :     4.134300793861628   Change is   -0.000000000390309
 Root      4 :     4.916863793329509   Change is   -0.000000058600986
 Root      5 :     5.371232598783913   Change is   -0.000000120133313
 Root      6 :     5.823774289994008   Change is   -0.000000146773796
 Iteration     9 Dimension   100 NMult    90 NNew     10
 CISAX will form    10 AO SS matrices at one time.
 NMat=    10 NSing=    10 JSym2X= 0.
 Root      1 has converged.
 Root      2 has converged.
 Root      3 has converged.
 Root      4 not converged, maximum delta is    0.000003412466555
 Root      5 not converged, maximum delta is    0.000008463845826
 Root      6 not converged, maximum delta is    0.000016197090560
 Excitation Energies [eV] at current iteration:
 Root      1 :     3.069071055836622   Change is   -0.000000000090322
 Root      2 :     3.972028326633037   Change is   -0.000000000007678
 Root      3 :     4.134300793850135   Change is   -0.000000000011493
 Root      4 :     4.916863789808231   Change is   -0.000000003521278
 Root      5 :     5.371232589899457   Change is   -0.000000008884456
 Root      6 :     5.823774272815796   Change is   -0.000000017178212
 Iteration    10 Dimension   106 NMult   100 NNew      6
 CISAX will form     6 AO SS matrices at one time.
 NMat=     6 NSing=     6 JSym2X= 0.
 Root      1 has converged.
 Root      2 has converged.
 Root      3 has converged.
 Root      4 not converged, maximum delta is    0.000001197738132
 Root      5 not converged, maximum delta is    0.000002637848084
 Root      6 not converged, maximum delta is    0.000005083760631
 Excitation Energies [eV] at current iteration:
 Root      1 :     3.069071055835389   Change is   -0.000000000001232
 Root      2 :     3.972028326632788   Change is   -0.000000000000248
 Root      3 :     4.134300793849478   Change is   -0.000000000000656
 Root      4 :     4.916863789594840   Change is   -0.000000000213391
 Root      5 :     5.371232589201450   Change is   -0.000000000698006
 Root      6 :     5.823774271158257   Change is   -0.000000001657539
 Iteration    11 Dimension   112 NMult   106 NNew      6
 CISAX will form     6 AO SS matrices at one time.
 NMat=     6 NSing=     6 JSym2X= 0.
 Root      1 has converged.
 Root      2 has converged.
 Root      3 has converged.
 Root      4 has converged.
 Root      5 has converged.
 Root      6 not converged, maximum delta is    0.000001885913129
 Excitation Energies [eV] at current iteration:
 Root      1 :     3.069071055835229   Change is   -0.000000000000161
 Root      2 :     3.972028326632747   Change is   -0.000000000000042
 Root      3 :     4.134300793849200   Change is   -0.000000000000278
 Root      4 :     4.916863789581164   Change is   -0.000000000013676
 Root      5 :     5.371232589145755   Change is   -0.000000000055696
 Root      6 :     5.823774270996561   Change is   -0.000000000161697
 Iteration    12 Dimension   114 NMult   112 NNew      2
 CISAX will form     2 AO SS matrices at one time.
 NMat=     2 NSing=     2 JSym2X= 0.
 Root      1 has converged.
 Root      2 has converged.
 Root      3 has converged.
 Root      4 has converged.
 Root      5 has converged.
 Root      6 has converged.
 Excitation Energies [eV] at current iteration:
 Root      1 :     3.069071055835282   Change is    0.000000000000054
 Root      2 :     3.972028326632664   Change is   -0.000000000000082
 Root      3 :     4.134300793848921   Change is   -0.000000000000279
 Root      4 :     4.916863789581114   Change is   -0.000000000000051
 Root      5 :     5.371232589145664   Change is   -0.000000000000091
 Root      6 :     5.823774270981753   Change is   -0.000000000014808
 Convergence achieved on expansion vectors.
 ***********************************************************************
 Excited states from <AA,BB:AA,BB> singles matrix:
 ***********************************************************************
 
 1PDM for each excited state written to RWF  633
 Ground to excited state transition densities written to RWF  633
 Ground to excited state transition electric dipole moments (Au):
       state          X           Y           Z        Dip. S.      Osc.
         1         1.6258     -0.1859     -0.0501      2.6804      0.2015
         2        -0.0442     -0.0347      0.0380      0.0046      0.0004
         3        -0.0510      0.1183     -0.0267      0.0173      0.0018
         4         0.1945      1.7311     -0.0750      3.0403      0.3662
         5        -0.0666     -1.5303      0.0076      2.3463      0.3088
         6        -0.0218     -0.2232     -0.0494      0.0527      0.0075
 Ground to excited state transition velocity dipole moments (Au):
       state          X           Y           Z        Dip. S.      Osc.
         1        -0.1760      0.0166      0.0061      0.0313      0.1850
         2         0.0061      0.0054     -0.0025      0.0001      0.0003
         3         0.0073     -0.0159      0.0007      0.0003      0.0013
         4        -0.0393     -0.2991      0.0101      0.0911      0.3362
         5         0.0137      0.2962     -0.0026      0.0879      0.2969
         6         0.0058      0.0452      0.0305      0.0030      0.0094
 Ground to excited state transition magnetic dipole moments (Au):
       state          X           Y           Z
         1         0.0345     -0.0466      1.4714
         2         0.7931     -0.1161     -0.1589
         3         0.1868     -0.9775     -0.2122
         4        -0.0323      0.0766     -0.0709
         5         0.1348     -0.1025      0.2837
         6        -0.0319      0.0134     -0.0303
 Ground to excited state transition velocity quadrupole moments (Au):
       state          XX          YY          ZZ          XY          XZ          YZ
         1         0.1681     -0.0924     -0.0053      0.5001     -0.0377     -0.0173
         2         0.0184     -0.0081     -0.0071     -0.0221      0.0095      0.0799
         3        -0.0155      0.0015      0.0209     -0.0636      0.0636      0.0102
         4         1.3161     -0.2848     -0.0090     -0.0745     -0.0782      0.0350
         5        -0.4715      0.2833      0.0384      0.2320      0.0633      0.0131
         6         0.1582      0.1636     -0.1395     -0.0155     -0.0296     -0.1000
 <0|del|b> * <b|rxdel|0> + <0|del|b> * <b|delr+rdel|0>
 Rotatory Strengths (R) in cgs (10**-40 erg-esu-cm/Gauss)
       state          XX          YY          ZZ    R(velocity)    E-M Angle
         1        36.9524      8.9363    -33.0155      4.2911       89.55
         2        -0.5621     13.6292      9.0738      7.3803       48.74
         3        38.0803      3.1032     36.7792     25.9875       19.67
         4       -93.5036     -0.1418      6.0668    -29.1929      132.71
         5       -90.3217      3.3867    -17.7685    -34.9011      107.36
         6         0.9103     -2.0015     -0.5607     -0.5507      101.43
 1/2[<0|r|b>*<b|rxdel|0> + (<0|rxdel|b>*<b|r|0>)*]
 Rotatory Strengths (R) in cgs (10**-40 erg-esu-cm/Gauss)
       state          XX          YY          ZZ     R(length)
         1       -39.7196     -6.1188     52.1092      2.0903
         2        24.8072     -2.8478      4.2691      8.7428
         3         6.7329     81.8113     -4.0084     28.1786
         4         4.4362    -93.8263     -3.7592    -31.0498
         5         6.3546   -110.8823     -1.5294    -35.3524
         6        -0.4917      2.1225     -1.0585      0.1908
  1/2[<0|del|b>*<b|r|0> + (<0|r|b>*<b|del|0>)*] (Au)
       state          X           Y           Z        Dip. S.   Osc.(frdel)
         1        -0.2862     -0.0031     -0.0003      0.2896      0.1931
         2        -0.0003     -0.0002     -0.0001      0.0005      0.0004
         3        -0.0004     -0.0019     -0.0000      0.0023      0.0015
         4        -0.0076     -0.5179     -0.0008      0.5263      0.3508
         5        -0.0009     -0.4532     -0.0000      0.4541      0.3028
         6        -0.0001     -0.0101     -0.0015      0.0117      0.0078

 Excitation energies and oscillator strengths:
 
 Excited State   1:      Singlet-A      3.0691 eV  403.98 nm  f=0.2015  <S**2>=0.000
      52 -> 53         0.70110
 
 Excited State   2:      Singlet-A      3.9720 eV  312.14 nm  f=0.0004  <S**2>=0.000
      50 -> 54         0.17520
      51 -> 53         0.58235
      51 -> 54         0.31847
 This state for optimization and/or second-order correction.
 Total Energy, E(TD-HF/TD-DFT) =  -633.177978290    
 Copying the excited state density for this state as the 1-particle RhoCI density.
 
 Excited State   3:      Singlet-A      4.1343 eV  299.89 nm  f=0.0018  <S**2>=0.000
      49 -> 53         0.23838
      49 -> 54        -0.14431
      50 -> 53         0.53936
      50 -> 54        -0.24947
      50 -> 58         0.11320
      51 -> 54         0.20022
 
 Excited State   4:      Singlet-A      4.9169 eV  252.16 nm  f=0.3662  <S**2>=0.000
      52 -> 54         0.69575
 
 Excited State   5:      Singlet-A      5.3712 eV  230.83 nm  f=0.3088  <S**2>=0.000
      49 -> 53         0.62295
      50 -> 53        -0.27990
      51 -> 53         0.10236
 
 Excited State   6:      Singlet-A      5.8238 eV  212.89 nm  f=0.0075  <S**2>=0.000
      52 -> 55         0.65105
      52 -> 56         0.16817
      52 -> 57         0.11130
 SavETr:  write IOETrn=   770 NScale= 10 NData=  16 NLR=1 NState=    6 LETran=     118.
 The selected state is a singlet.
 CISGrd: IGrad=1 NXY=2 DFT=T
 CISAX will form     1 AO SS matrices at one time.
 NMat=     1 NSing=     1 JSym2X= 0.
 Leave Link  914 at Fri Jan 23 18:48:42 2026, MaxMem=  2147483648 cpu:            7714.2 elap:             484.4
 (Enter /data/home/wyx/g16/l1002.exe)
 Minotr:  Closed shell wavefunction.
          Computing CIS/TDA/TD derivatives.
          Using Z-Vector for PSCF gradient.
          Skipping F1 and S1 gradient terms here.
 NEqPCM:  Using equilibrium solvation (IEInf=0, Eps=   7.4257, EpsInf=   1.9740)
          Frozen-core window.
          Direct CPHF calculation.
          Differentiating once with respect to electric field.
                with respect to dipole field.
          Electric field/nuclear overlap derivatives assumed to be zero.
          Requested convergence is 1.0D-10 RMS, and 1.0D-09 maximum.
          NewPWx=F KeepS1=T KeepF1=T KeepIn=T MapXYZ=F SortEE=F KeepMc=T.
 Two-electron integral symmetry used by symmetrizing perturbed Fock matrices.
          MDV=    2147483648 using IRadAn=       5.
          Solving linear equations separately, MaxMat=     384.
          There are     1 degrees of freedom in the 1st order CPHF.  IDoFFX=0 NUNeed=     1.
 FoFJK:  IHMeth= 1 ICntrl=       0 DoSepK=T KAlg= 0 I1Cent=           0 FoldK=F
 IRaf=         1 NMat=       1 IRICut=       1 DoRegI=T DoRafI=F ISym2E=-1 IDoP0=0 IntGTp=1.
 FoFCou: FMM=F IPFlag=           0 FMFlag=      100000 FMFlg1=           0
         NFxFlg=           0 DoJE=T BraDBF=F KetDBF=F FulRan=T
         wScrn=  0.000000 ICntrl=       500 IOpCl=  0 I1Cent=           0 NGrid=           0
         NMat0=    1 NMatS0=      1 NMatT0=    0 NMatD0=    1 NMtDS0=    0 NMtDT0=    0
 Petite list used in FoFCou.
 LinEq1:  Iter=  0 NonCon=     1 RMS=8.18D-03 Max=3.66D-01 NDo=     1
 AX will form     1 AO Fock derivatives at one time.
 LinEq1:  Iter=  1 NonCon=     1 RMS=2.24D-03 Max=1.05D-01 NDo=     1
 LinEq1:  Iter=  2 NonCon=     1 RMS=1.57D-03 Max=9.11D-02 NDo=     1
 LinEq1:  Iter=  3 NonCon=     1 RMS=6.53D-04 Max=3.55D-02 NDo=     1
 LinEq1:  Iter=  4 NonCon=     1 RMS=3.42D-04 Max=1.30D-02 NDo=     1
 LinEq1:  Iter=  5 NonCon=     1 RMS=1.78D-04 Max=9.30D-03 NDo=     1
 LinEq1:  Iter=  6 NonCon=     1 RMS=9.10D-05 Max=3.04D-03 NDo=     1
 LinEq1:  Iter=  7 NonCon=     1 RMS=5.41D-05 Max=2.52D-03 NDo=     1
 LinEq1:  Iter=  8 NonCon=     1 RMS=2.55D-05 Max=9.12D-04 NDo=     1
 LinEq1:  Iter=  9 NonCon=     1 RMS=1.86D-05 Max=8.88D-04 NDo=     1
 LinEq1:  Iter= 10 NonCon=     1 RMS=7.68D-06 Max=2.05D-04 NDo=     1
 LinEq1:  Iter= 11 NonCon=     1 RMS=4.25D-06 Max=1.48D-04 NDo=     1
 LinEq1:  Iter= 12 NonCon=     1 RMS=1.30D-06 Max=3.84D-05 NDo=     1
 LinEq1:  Iter= 13 NonCon=     1 RMS=6.22D-07 Max=1.45D-05 NDo=     1
 LinEq1:  Iter= 14 NonCon=     1 RMS=2.28D-07 Max=5.72D-06 NDo=     1
 LinEq1:  Iter= 15 NonCon=     1 RMS=9.28D-08 Max=2.77D-06 NDo=     1
 LinEq1:  Iter= 16 NonCon=     1 RMS=3.65D-08 Max=1.68D-06 NDo=     1
 LinEq1:  Iter= 17 NonCon=     1 RMS=1.44D-08 Max=6.70D-07 NDo=     1
 LinEq1:  Iter= 18 NonCon=     1 RMS=5.96D-09 Max=1.94D-07 NDo=     1
 LinEq1:  Iter= 19 NonCon=     1 RMS=1.85D-09 Max=3.72D-08 NDo=     1
 LinEq1:  Iter= 20 NonCon=     1 RMS=5.58D-10 Max=1.80D-08 NDo=     1
 LinEq1:  Iter= 21 NonCon=     1 RMS=2.20D-10 Max=4.42D-09 NDo=     1
 LinEq1:  Iter= 22 NonCon=     1 RMS=8.93D-11 Max=2.09D-09 NDo=     1
 LinEq1:  Iter= 23 NonCon=     0 RMS=2.32D-11 Max=4.23D-10 NDo=     1
 Linear equations converged to 1.000D-10 1.000D-09 after    23 iterations.
 PCM Corrected Linear-Response - Equilibrium solvation:
 Corrected transition energy               =    3.8945          eV
 Total energy after correction             = -633.180826113     a.u.
 NEqPCM:  Using non-equilibrium solvation (IEInf=1, Eps=   7.4257, EpsInf=   1.9740)
 Inv3:  Mode=1 IEnd=    13508652.
 Iteration    1 A*A^-1 deviation from unit magnitude is 3.11D-15 for    896.
 Iteration    1 A*A^-1 deviation from orthogonality  is 2.12D-15 for   1934     96.
 Iteration    1 A^-1*A deviation from unit magnitude is 3.11D-15 for   1655.
 Iteration    1 A^-1*A deviation from orthogonality  is 3.11D-15 for   1953    359.
 NEqSol: Computing the dynamic-inertial partition of the PCM polarization charges.
 End of Minotr F.D. properties file   721 does not exist.
 End of Minotr F.D. properties file   722 does not exist.
 End of Minotr F.D. properties file   788 does not exist.
 Leave Link 1002 at Fri Jan 23 18:50:45 2026, MaxMem=  2147483648 cpu:            1905.3 elap:             119.9
 (Enter /data/home/wyx/g16/l601.exe)
 Copying SCF densities to generalized density rwf, IOpCl= 0 IROHF=0.

 **********************************************************************

            Population analysis using the CI density.

 **********************************************************************

 Orbital symmetries:
       Occupied  (A) (A) (A) (A) (A) (A) (A) (A) (A) (A) (A) (A)
                 (A) (A) (A) (A) (A) (A) (A) (A) (A) (A) (A) (A)
                 (A) (A) (A) (A) (A) (A) (A) (A) (A) (A) (A) (A)
                 (A) (A) (A) (A) (A) (A) (A) (A) (A) (A) (A) (A)
                 (A) (A) (A) (A)
       Virtual   (A) (A) (A) (A) (A) (A) (A) (A) (A) (A) (A) (A)
                 (A) (A) (A) (A) (A) (A) (A) (A) (A) (A) (A) (A)
                 (A) (A) (A) (A) (A) (A) (A) (A) (A) (A) (A) (A)
                 (A) (A) (A) (A) (A) (A) (A) (A) (A) (A) (A) (A)
                 (A) (A) (A) (A) (A) (A) (A) (A) (A) (A) (A) (A)
                 (A) (A) (A) (A) (A) (A) (A) (A) (A) (A) (A) (A)
                 (A) (A) (A) (A) (A) (A) (A) (A) (A) (A) (A) (A)
                 (A) (A) (A) (A) (A) (A) (A) (A) (A) (A) (A) (A)
                 (A) (A) (A) (A) (A) (A) (A) (A) (A) (A) (A) (A)
                 (A) (A) (A) (A) (A) (A) (A) (A) (A) (A) (A) (A)
                 (A) (A) (A) (A) (A) (A) (A) (A) (A) (A) (A) (A)
                 (A) (A) (A) (A) (A) (A) (A) (A) (A) (A) (A) (A)
                 (A) (A) (A) (A) (A) (A) (A) (A) (A) (A) (A) (A)
                 (A) (A) (A) (A) (A) (A) (A) (A) (A) (A) (A) (A)
                 (A) (A) (A) (A) (A) (A) (A) (A) (A) (A) (A) (A)
                 (A) (A) (A) (A) (A) (A) (A) (A) (A) (A) (A) (A)
                 (A) (A) (A) (A) (A) (A) (A) (A) (A) (A) (A) (A)
                 (A) (A) (A) (A) (A) (A) (A) (A) (A) (A) (A) (A)
                 (A) (A) (A) (A) (A) (A) (A) (A) (A) (A) (A) (A)
                 (A) (A) (A) (A) (A) (A) (A) (A) (A) (A) (A) (A)
                 (A) (A) (A) (A) (A) (A) (A) (A) (A) (A) (A) (A)
                 (A) (A) (A) (A) (A) (A) (A) (A) (A) (A) (A) (A)
                 (A) (A) (A) (A) (A) (A) (A) (A) (A) (A) (A) (A)
                 (A) (A) (A) (A) (A) (A) (A) (A) (A) (A) (A) (A)
                 (A) (A) (A) (A) (A) (A) (A) (A) (A) (A) (A) (A)
                 (A) (A) (A) (A)
 The electronic state is 1-A.
 Alpha  occ. eigenvalues --  -19.17808 -19.16988 -14.44617 -10.33358 -10.32799
 Alpha  occ. eigenvalues --  -10.32630 -10.32006 -10.26137 -10.25303 -10.24969
 Alpha  occ. eigenvalues --  -10.24619 -10.24511 -10.24227 -10.23572  -1.11559
 Alpha  occ. eigenvalues --   -1.11048  -1.08282  -0.91436  -0.90484  -0.83957
 Alpha  occ. eigenvalues --   -0.82679  -0.81697  -0.78568  -0.73916  -0.71954
 Alpha  occ. eigenvalues --   -0.68689  -0.61626  -0.58319  -0.56982  -0.55188
 Alpha  occ. eigenvalues --   -0.54667  -0.54018  -0.52562  -0.51841  -0.50871
 Alpha  occ. eigenvalues --   -0.49777  -0.49536  -0.49285  -0.48677  -0.48082
 Alpha  occ. eigenvalues --   -0.47131  -0.45269  -0.45183  -0.43860  -0.43225
 Alpha  occ. eigenvalues --   -0.42228  -0.42173  -0.41631  -0.32669  -0.32173
 Alpha  occ. eigenvalues --   -0.31139  -0.25373
 Alpha virt. eigenvalues --   -0.03005   0.02573   0.06246   0.08033   0.08416
 Alpha virt. eigenvalues --    0.09827   0.10725   0.11677   0.12543   0.13455
 Alpha virt. eigenvalues --    0.13905   0.14838   0.15592   0.16310   0.16932
 Alpha virt. eigenvalues --    0.17518   0.17845   0.18072   0.18288   0.19217
 Alpha virt. eigenvalues --    0.19891   0.22053   0.22808   0.23500   0.23822
 Alpha virt. eigenvalues --    0.23933   0.24779   0.25637   0.26225   0.26646
 Alpha virt. eigenvalues --    0.27199   0.27922   0.28643   0.29251   0.30124
 Alpha virt. eigenvalues --    0.31704   0.31926   0.32400   0.33470   0.34410
 Alpha virt. eigenvalues --    0.34821   0.35939   0.36690   0.38022   0.38480
 Alpha virt. eigenvalues --    0.39739   0.41033   0.41419   0.41911   0.42530
 Alpha virt. eigenvalues --    0.44023   0.44715   0.45566   0.46217   0.46411
 Alpha virt. eigenvalues --    0.47306   0.47755   0.47998   0.48361   0.49164
 Alpha virt. eigenvalues --    0.49540   0.50598   0.51146   0.51458   0.51589
 Alpha virt. eigenvalues --    0.52724   0.52909   0.53366   0.53792   0.54240
 Alpha virt. eigenvalues --    0.54453   0.55471   0.56010   0.56709   0.58310
 Alpha virt. eigenvalues --    0.58498   0.59765   0.61013   0.61407   0.62969
 Alpha virt. eigenvalues --    0.63881   0.65387   0.66467   0.66696   0.67784
 Alpha virt. eigenvalues --    0.68636   0.69668   0.71031   0.71619   0.72280
 Alpha virt. eigenvalues --    0.73163   0.74355   0.74910   0.75901   0.77762
 Alpha virt. eigenvalues --    0.78977   0.80127   0.83018   0.86067   0.87079
 Alpha virt. eigenvalues --    0.90698   0.94872   1.01760   1.03643   1.22617
 Alpha virt. eigenvalues --    1.24734   1.27201   1.28267   1.29383   1.30849
 Alpha virt. eigenvalues --    1.32243   1.32915   1.34287   1.34955   1.36222
 Alpha virt. eigenvalues --    1.36560   1.37691   1.38438   1.38941   1.39815
 Alpha virt. eigenvalues --    1.39904   1.40487   1.40775   1.41339   1.41893
 Alpha virt. eigenvalues --    1.43472   1.43668   1.44250   1.45276   1.47372
 Alpha virt. eigenvalues --    1.48018   1.49523   1.50059   1.50300   1.50727
 Alpha virt. eigenvalues --    1.51316   1.52498   1.52675   1.55169   1.58222
 Alpha virt. eigenvalues --    1.59043   1.60453   1.60828   1.61481   1.62571
 Alpha virt. eigenvalues --    1.62691   1.63193   1.64012   1.64452   1.65873
 Alpha virt. eigenvalues --    1.66616   1.67079   1.67613   1.68023   1.68509
 Alpha virt. eigenvalues --    1.69032   1.69895   1.70103   1.71264   1.72417
 Alpha virt. eigenvalues --    1.74049   1.74973   1.75883   1.76616   1.78584
 Alpha virt. eigenvalues --    1.81171   1.82869   1.84033   1.85955   1.86565
 Alpha virt. eigenvalues --    1.86679   1.87989   1.88599   1.88933   1.90333
 Alpha virt. eigenvalues --    1.91255   1.94557   1.95095   1.99040   1.99760
 Alpha virt. eigenvalues --    2.01445   2.03919   2.05426   2.06826   2.09584
 Alpha virt. eigenvalues --    2.10629   2.12098   2.15476   2.17463   2.19713
 Alpha virt. eigenvalues --    2.20263   2.21311   2.22061   2.23024   2.26334
 Alpha virt. eigenvalues --    2.27228   2.27568   2.29370   2.31365   2.32376
 Alpha virt. eigenvalues --    2.33904   2.34305   2.36895   2.37987   2.38861
 Alpha virt. eigenvalues --    2.39600   2.40315   2.41520   2.42967   2.45048
 Alpha virt. eigenvalues --    2.46014   2.48010   2.49626   2.50221   2.51304
 Alpha virt. eigenvalues --    2.52387   2.54188   2.54854   2.56575   2.57698
 Alpha virt. eigenvalues --    2.58857   2.60829   2.61810   2.62595   2.63352
 Alpha virt. eigenvalues --    2.64683   2.65795   2.66675   2.67451   2.68532
 Alpha virt. eigenvalues --    2.71843   2.72113   2.73610   2.74635   2.75292
 Alpha virt. eigenvalues --    2.76113   2.76879   2.77349   2.78163   2.79135
 Alpha virt. eigenvalues --    2.80709   2.81999   2.83170   2.84095   2.84674
 Alpha virt. eigenvalues --    2.85578   2.86517   2.88708   2.89475   2.91978
 Alpha virt. eigenvalues --    2.97556   2.99243   3.00821   3.06333   3.10832
 Alpha virt. eigenvalues --    3.12407   3.14956   3.17631   3.18800   3.21465
 Alpha virt. eigenvalues --    3.21907   3.23819   3.24754   3.25888   3.26960
 Alpha virt. eigenvalues --    3.28161   3.30147   3.32958   3.34552   3.36650
 Alpha virt. eigenvalues --    3.37884   3.38871   3.39664   3.40006   3.41940
 Alpha virt. eigenvalues --    3.42257   3.44377   3.45237   3.47708   3.48492
 Alpha virt. eigenvalues --    3.49550   3.50028   3.55579   3.58542   3.60124
 Alpha virt. eigenvalues --    3.61027   3.90977   4.00606   4.33646   4.36515
 Alpha virt. eigenvalues --   21.66845  21.80658  22.08301  22.10688  22.11809
 Alpha virt. eigenvalues --   22.15039  22.15303  22.18723  22.19665  22.24941
 Alpha virt. eigenvalues --   22.28318  31.91848  43.63828  43.66624
          Condensed to atoms (all electrons):
               1          2          3          4          5          6
     1  O    7.958839   0.000000  -0.000186   0.000020   0.018908   0.011896
     2  O    0.000000   7.975228   0.000776   0.000023  -0.102906   0.000266
     3  N   -0.000186   0.000776   6.367890   0.369871  -0.094664   0.381291
     4  H    0.000020   0.000023   0.369871   0.422569   0.017333  -0.047346
     5  C    0.018908  -0.102906  -0.094664   0.017333   6.098133  -0.087991
     6  C    0.011896   0.000266   0.381291  -0.047346  -0.087991   5.586945
     7  C   -0.000408   0.003941   0.333109  -0.039861   0.330843  -0.124903
     8  C   -0.000216   0.320198   0.014260  -0.001075   0.324115   0.018481
     9  C   -0.008856   0.011430   0.002830  -0.000045  -0.453721  -0.055104
    10  H    0.011092   0.000013  -0.001108   0.000026  -0.112050   0.026741
    11  H    0.007646   0.000004   0.004175   0.000037  -0.045808  -0.020413
    12  C   -0.239347  -0.000920  -0.098221   0.015802   0.194831  -0.102880
    13  C    0.702456   0.000032   0.000904   0.000566   0.084373   0.129883
    14  C   -0.000007   0.012636  -0.029607  -0.009467  -0.099114   0.014020
    15  H    0.000000   0.000831   0.004162   0.002801   0.017283   0.004007
    16  H    0.000000  -0.002432   0.000090   0.000681   0.002148  -0.001497
    17  H   -0.000000  -0.002359  -0.001553   0.000755   0.000324  -0.000941
    18  C    0.000251  -0.049119  -0.000332   0.000018  -0.023848  -0.000378
    19  H   -0.000002   0.001371  -0.000002  -0.000001   0.011449   0.000102
    20  H    0.000048   0.002316   0.000042   0.000001  -0.009373  -0.000560
    21  H   -0.000091   0.002675  -0.000022  -0.000000  -0.019810  -0.000088
    22  C   -0.105154   0.000000  -0.000139   0.000128   0.004476  -0.018524
    23  H    0.001823  -0.000000   0.000007  -0.000013  -0.000038   0.009748
    24  H    0.005001  -0.000000   0.000136  -0.000056  -0.000712  -0.025959
    25  H    0.007279  -0.000000   0.000030  -0.000003  -0.000168  -0.000976
    26  C    0.000740   0.000002  -0.029489  -0.007124  -0.002544   0.179262
    27  H   -0.000052   0.000000  -0.003476   0.000535   0.000454  -0.034985
    28  H   -0.000315  -0.000000   0.001077   0.000772  -0.000129  -0.058307
    29  H    0.000027  -0.000000   0.001795   0.002024  -0.000308  -0.048115
               7          8          9         10         11         12
     1  O   -0.000408  -0.000216  -0.008856   0.011092   0.007646  -0.239347
     2  O    0.003941   0.320198   0.011430   0.000013   0.000004  -0.000920
     3  N    0.333109   0.014260   0.002830  -0.001108   0.004175  -0.098221
     4  H   -0.039861  -0.001075  -0.000045   0.000026   0.000037   0.015802
     5  C    0.330843   0.324115  -0.453721  -0.112050  -0.045808   0.194831
     6  C   -0.124903   0.018481  -0.055104   0.026741  -0.020413  -0.102880
     7  C    5.492380  -0.128914  -0.068660   0.016285  -0.009863  -0.013397
     8  C   -0.128914   5.354852  -0.017114  -0.013765  -0.002523  -0.016246
     9  C   -0.068660  -0.017114   6.398165   0.538756   0.400898  -0.199961
    10  H    0.016285  -0.013765   0.538756   0.535003  -0.049693  -0.113756
    11  H   -0.009863  -0.002523   0.400898  -0.049693   0.581997  -0.005807
    12  C   -0.013397  -0.016246  -0.199961  -0.113756  -0.005807   7.449009
    13  C    0.011392  -0.003742  -0.262527   0.000016  -0.002667  -0.413738
    14  C    0.222708  -0.017051   0.015158   0.000554  -0.000972  -0.005339
    15  H   -0.061465   0.000779  -0.000817  -0.000002   0.000050  -0.000275
    16  H   -0.052714  -0.010137  -0.000694  -0.000057   0.000169   0.000497
    17  H   -0.047604  -0.006440   0.001086   0.000064  -0.000066   0.000084
    18  C    0.012474   0.199754  -0.029738   0.010241  -0.014181  -0.002823
    19  H   -0.000378  -0.048948   0.002297   0.000666  -0.000263  -0.000968
    20  H    0.000906  -0.036597   0.005590  -0.007317   0.003616   0.002671
    21  H   -0.000610  -0.047041  -0.008593  -0.001338   0.001405   0.002710
    22  C    0.000009  -0.000021   0.003164  -0.000644   0.003047  -0.256175
    23  H    0.000012  -0.000001  -0.002725  -0.000140   0.000189  -0.011304
    24  H   -0.000021   0.000001   0.003164   0.000035  -0.000190   0.064315
    25  H    0.000012   0.000001   0.000847  -0.000035  -0.000108   0.020475
    26  C    0.003986   0.000385   0.030392   0.000135  -0.001019  -0.093575
    27  H    0.000023  -0.000024  -0.001827   0.000041  -0.000001  -0.015275
    28  H   -0.000802   0.000001   0.001714   0.000020  -0.000152  -0.004255
    29  H    0.003410  -0.000007  -0.001131  -0.000016   0.000106   0.022398
              13         14         15         16         17         18
     1  O    0.702456  -0.000007   0.000000   0.000000  -0.000000   0.000251
     2  O    0.000032   0.012636   0.000831  -0.002432  -0.002359  -0.049119
     3  N    0.000904  -0.029607   0.004162   0.000090  -0.001553  -0.000332
     4  H    0.000566  -0.009467   0.002801   0.000681   0.000755   0.000018
     5  C    0.084373  -0.099114   0.017283   0.002148   0.000324  -0.023848
     6  C    0.129883   0.014020   0.004007  -0.001497  -0.000941  -0.000378
     7  C    0.011392   0.222708  -0.061465  -0.052714  -0.047604   0.012474
     8  C   -0.003742  -0.017051   0.000779  -0.010137  -0.006440   0.199754
     9  C   -0.262527   0.015158  -0.000817  -0.000694   0.001086  -0.029738
    10  H    0.000016   0.000554  -0.000002  -0.000057   0.000064   0.010241
    11  H   -0.002667  -0.000972   0.000050   0.000169  -0.000066  -0.014181
    12  C   -0.413738  -0.005339  -0.000275   0.000497   0.000084  -0.002823
    13  C    5.528952  -0.000110   0.000006   0.000003  -0.000010   0.000984
    14  C   -0.000110   5.098336   0.398782   0.439885   0.427795   0.001985
    15  H    0.000006   0.398782   0.545090  -0.022614  -0.022030   0.000012
    16  H    0.000003   0.439885  -0.022614   0.517767  -0.035328  -0.000400
    17  H   -0.000010   0.427795  -0.022030  -0.035328   0.521118  -0.000519
    18  C    0.000984   0.001985   0.000012  -0.000400  -0.000519   5.087379
    19  H   -0.000045   0.000061   0.000003   0.000024   0.000026   0.398259
    20  H    0.000178  -0.000193  -0.000002   0.000003   0.000025   0.407804
    21  H   -0.000019  -0.000285   0.000000   0.000014  -0.000032   0.428945
    22  C    0.283116  -0.000017   0.000002  -0.000000  -0.000000   0.000008
    23  H   -0.027017  -0.000001   0.000000  -0.000000  -0.000000  -0.000002
    24  H   -0.096144   0.000003  -0.000000   0.000000   0.000000   0.000002
    25  H   -0.036987   0.000001  -0.000000  -0.000000  -0.000000  -0.000000
    26  C   -0.052330   0.001052   0.000013   0.000018  -0.000060   0.000020
    27  H    0.006548  -0.000144   0.000002   0.000004  -0.000012  -0.000001
    28  H   -0.002897   0.000069  -0.000011  -0.000001   0.000002   0.000001
    29  H   -0.000868  -0.000201   0.000099  -0.000005   0.000001  -0.000000
              19         20         21         22         23         24
     1  O   -0.000002   0.000048  -0.000091  -0.105154   0.001823   0.005001
     2  O    0.001371   0.002316   0.002675   0.000000  -0.000000  -0.000000
     3  N   -0.000002   0.000042  -0.000022  -0.000139   0.000007   0.000136
     4  H   -0.000001   0.000001  -0.000000   0.000128  -0.000013  -0.000056
     5  C    0.011449  -0.009373  -0.019810   0.004476  -0.000038  -0.000712
     6  C    0.000102  -0.000560  -0.000088  -0.018524   0.009748  -0.025959
     7  C   -0.000378   0.000906  -0.000610   0.000009   0.000012  -0.000021
     8  C   -0.048948  -0.036597  -0.047041  -0.000021  -0.000001   0.000001
     9  C    0.002297   0.005590  -0.008593   0.003164  -0.002725   0.003164
    10  H    0.000666  -0.007317  -0.001338  -0.000644  -0.000140   0.000035
    11  H   -0.000263   0.003616   0.001405   0.003047   0.000189  -0.000190
    12  C   -0.000968   0.002671   0.002710  -0.256175  -0.011304   0.064315
    13  C   -0.000045   0.000178  -0.000019   0.283116  -0.027017  -0.096144
    14  C    0.000061  -0.000193  -0.000285  -0.000017  -0.000001   0.000003
    15  H    0.000003  -0.000002   0.000000   0.000002   0.000000  -0.000000
    16  H    0.000024   0.000003   0.000014  -0.000000  -0.000000   0.000000
    17  H    0.000026   0.000025  -0.000032  -0.000000  -0.000000   0.000000
    18  C    0.398259   0.407804   0.428945   0.000008  -0.000002   0.000002
    19  H    0.522016  -0.019439  -0.030173  -0.000001  -0.000000   0.000000
    20  H   -0.019439   0.510242  -0.035602   0.000017   0.000000  -0.000000
    21  H   -0.030173  -0.035602   0.526104   0.000003   0.000000  -0.000000
    22  C   -0.000001   0.000017   0.000003   5.427591   0.404580   0.395598
    23  H   -0.000000   0.000000   0.000000   0.404580   0.504433  -0.028536
    24  H    0.000000  -0.000000  -0.000000   0.395598  -0.028536   0.549568
    25  H    0.000000   0.000000  -0.000001   0.380572  -0.010398  -0.021968
    26  C    0.000001  -0.000006  -0.000005  -0.032936  -0.011359   0.015348
    27  H   -0.000000  -0.000000   0.000001  -0.009918   0.001291  -0.002417
    28  H    0.000000   0.000000  -0.000000   0.003574  -0.001264  -0.007349
    29  H   -0.000000   0.000000   0.000000   0.002103   0.000197   0.000629
              25         26         27         28         29
     1  O    0.007279   0.000740  -0.000052  -0.000315   0.000027
     2  O   -0.000000   0.000002   0.000000  -0.000000  -0.000000
     3  N    0.000030  -0.029489  -0.003476   0.001077   0.001795
     4  H   -0.000003  -0.007124   0.000535   0.000772   0.002024
     5  C   -0.000168  -0.002544   0.000454  -0.000129  -0.000308
     6  C   -0.000976   0.179262  -0.034985  -0.058307  -0.048115
     7  C    0.000012   0.003986   0.000023  -0.000802   0.003410
     8  C    0.000001   0.000385  -0.000024   0.000001  -0.000007
     9  C    0.000847   0.030392  -0.001827   0.001714  -0.001131
    10  H   -0.000035   0.000135   0.000041   0.000020  -0.000016
    11  H   -0.000108  -0.001019  -0.000001  -0.000152   0.000106
    12  C    0.020475  -0.093575  -0.015275  -0.004255   0.022398
    13  C   -0.036987  -0.052330   0.006548  -0.002897  -0.000868
    14  C    0.000001   0.001052  -0.000144   0.000069  -0.000201
    15  H   -0.000000   0.000013   0.000002  -0.000011   0.000099
    16  H   -0.000000   0.000018   0.000004  -0.000001  -0.000005
    17  H   -0.000000  -0.000060  -0.000012   0.000002   0.000001
    18  C   -0.000000   0.000020  -0.000001   0.000001  -0.000000
    19  H    0.000000   0.000001  -0.000000   0.000000  -0.000000
    20  H    0.000000  -0.000006  -0.000000   0.000000   0.000000
    21  H   -0.000001  -0.000005   0.000001  -0.000000   0.000000
    22  C    0.380572  -0.032936  -0.009918   0.003574   0.002103
    23  H   -0.010398  -0.011359   0.001291  -0.001264   0.000197
    24  H   -0.021968   0.015348  -0.002417  -0.007349   0.000629
    25  H    0.501674   0.001949   0.000017   0.000811  -0.000043
    26  C    0.001949   5.261611   0.422190   0.438629   0.387165
    27  H    0.000017   0.422190   0.500371  -0.032119  -0.017980
    28  H    0.000811   0.438629  -0.032119   0.520250  -0.026429
    29  H   -0.000043   0.387165  -0.017980  -0.026429   0.526615
 Mulliken charges:
               1
     1  O   -0.371393
     2  O   -0.174007
     3  N   -0.223647
     4  H    0.271029
     5  C   -0.051488
     6  C    0.266325
     7  C    0.118111
     8  C    0.117034
     9  C   -0.303979
    10  H    0.160230
    11  H    0.150385
    12  C   -0.178527
    13  C    0.149693
    14  C   -0.470533
    15  H    0.133294
    16  H    0.164578
    17  H    0.165676
    18  C   -0.426796
    19  H    0.163946
    20  H    0.175630
    21  H    0.181853
    22  C   -0.484457
    23  H    0.170515
    24  H    0.149554
    25  H    0.157020
    26  C   -0.512452
    27  H    0.186755
    28  H    0.167113
    29  H    0.148537
 Sum of Mulliken charges =  -0.00000
 Mulliken charges with hydrogens summed into heavy atoms:
               1
     1  O   -0.371393
     2  O   -0.174007
     3  N    0.047381
     5  C   -0.051488
     6  C    0.266325
     7  C    0.118111
     8  C    0.117034
     9  C    0.006637
    12  C   -0.178527
    13  C    0.149693
    14  C   -0.006985
    18  C    0.094634
    22  C   -0.007368
    26  C   -0.010047
 Electronic spatial extent (au):  <R**2>=           3191.9383
 Charge=              0.0000 electrons
 Dipole moment (field-independent basis, Debye):
    X=              0.0716    Y=              5.9938    Z=              0.3719  Tot=              6.0058
 Quadrupole moment (field-independent basis, Debye-Ang):
   XX=            -86.8178   YY=            -78.5782   ZZ=            -86.3308
   XY=             15.5897   XZ=              2.9951   YZ=             -1.9607
 Traceless Quadrupole moment (field-independent basis, Debye-Ang):
   XX=             -2.9088   YY=              5.3307   ZZ=             -2.4219
   XY=             15.5897   XZ=              2.9951   YZ=             -1.9607
 Octapole moment (field-independent basis, Debye-Ang**2):
  XXX=             42.0772  YYY=             53.9839  ZZZ=              1.5892  XYY=            -42.6457
  XXY=             17.9247  XXZ=             -0.2406  XZZ=              0.6682  YZZ=             -2.1904
  YYZ=              3.7424  XYZ=             -5.0236
 Hexadecapole moment (field-independent basis, Debye-Ang**3):
 XXXX=          -2833.4030 YYYY=          -1282.4056 ZZZZ=           -148.5738 XXXY=             83.2200
 XXXZ=             24.9653 YYYX=            106.4610 YYYZ=            -17.9093 ZZZX=             -4.1803
 ZZZY=              3.1350 XXYY=           -682.1181 XXZZ=           -484.7314 YYZZ=           -247.0709
 XXYZ=            -11.1951 YYXZ=             10.0329 ZZXY=              1.1771
 N-N= 8.999442327145D+02 E-N=-3.276063672501D+03  KE= 6.307887980923D+02
 No NMR shielding tensors so no spin-rotation constants.
 Leave Link  601 at Fri Jan 23 18:50:46 2026, MaxMem=  2147483648 cpu:               1.8 elap:               0.1
 (Enter /data/home/wyx/g16/l9999.exe)
 Electronic transition elements 
                 1             2             3             4             5 
      1  -0.633211D+03 -0.633178D+03 -0.633172D+03 -0.633143D+03 -0.633127D+03
      2   0.158966D+01 -0.341296D-01 -0.841119D-01 -0.385894D+00  0.446266D+00
      3   0.371160D+00 -0.470829D-01  0.939922D-01  0.169470D+01 -0.146337D+01
      4   0.124916D+00  0.349267D-01 -0.375076D-01 -0.139201D+00  0.754979D-01
      5  -0.171014D+00  0.415191D-02  0.120127D-01  0.616569D-01 -0.855189D-01
      6  -0.434933D-01  0.709187D-02 -0.125137D-01 -0.294794D+00  0.283458D+00
      7  -0.127256D-01 -0.209502D-02  0.216294D-02  0.206730D-01 -0.156015D-01
      8  -0.117449D+00  0.799067D+00  0.524234D+00 -0.477545D-01  0.128500D+00
      9  -0.148661D-01  0.155505D+00 -0.860201D+00  0.604882D-01 -0.477915D-01
     10   0.146782D+01 -0.714713D-01 -0.144097D+00 -0.774771D-01  0.300581D+00
     11  -0.168095D+00  0.328694D-01  0.139205D-01  0.118737D+01 -0.538421D+00
     12   0.253105D+00 -0.172800D-01 -0.399916D-01 -0.150737D+00  0.345633D+00
     13  -0.145984D-01 -0.124311D-01  0.329553D-01 -0.143470D-01  0.429503D-01
     14   0.469712D+00 -0.177141D-01 -0.571849D-01  0.444620D+00 -0.619020D-01
     15  -0.536671D-01 -0.130661D-01  0.563968D-01  0.445879D-01 -0.916778D-02
     16   0.208583D-01  0.770498D-01  0.254614D-01  0.586851D-01  0.231752D-01
                 6 
      1  -0.633110D+03
      2   0.594503D-01
      3  -0.218079D+00
      4  -0.404187D-01
      5  -0.130965D-01
      6   0.448873D-01
      7   0.287022D-01
      8  -0.309374D-01
      9   0.157968D-02
     10  -0.340061D-01
     11   0.163400D+00
     12   0.150683D+00
     13  -0.131840D+00
     14  -0.146350D-02
     15   0.398498D-01
     16  -0.108363D+00
 1\1\GINC-CN012\SP\RCAM-B3LYP TD-FC\TZVP\C11H15N1O2\WYX\23-Jan-2026\0\\
 #p CAM-B3LYP TZVP em=gd3bj td(nstates=6,root=2) scrf=(Solvent=TetraHyd
 roFuran,CorrectedLR,NonEquilibrium=Save) Geom=Check Guess=Read\\Title 
 Card Required\\0,1\O,0,2.838809,-1.571128,0.068736\O,0,-3.427353,-1.64
 1177,-0.082262\N,0,-0.656723,1.516031,-0.234645\H,0,-0.967862,2.475653
 ,-0.285417\C,0,-1.245636,-0.761057,-0.207138\C,0,0.684977,1.325013,-0.
 046062\C,0,-1.630886,0.569721,-0.253025\C,0,-2.215241,-1.841272,-0.160
 243\C,0,0.201203,-1.09032,-0.234406\H,0,0.423308,-1.907329,0.457948\H,
 0,0.464529,-1.536889,-1.208585\C,0,1.148518,0.025151,0.026423\C,0,2.51
 6735,-0.399667,0.285161\C,0,-3.018943,1.100641,-0.335118\H,0,-3.018592
 ,2.178649,-0.487134\H,0,-3.570426,0.636659,-1.14645\H,0,-3.576381,0.88
 3996,0.571943\C,0,-1.715791,-3.260995,-0.186936\H,0,-2.536482,-3.92676
 6,-0.429515\H,0,-0.91224,-3.417795,-0.900131\H,0,-1.332299,-3.547828,0
 .791364\C,0,3.557068,0.531983,0.857866\H,0,4.065357,1.075725,0.059011\
 H,0,3.145927,1.257569,1.55484\H,0,4.299723,-0.077657,1.367788\C,0,1.46
 8398,2.593322,0.027373\H,0,1.662978,2.895519,1.056446\H,0,2.423192,2.5
 0674,-0.478761\H,0,0.924131,3.407506,-0.449071\\Version=ES64L-G16RevA.
 03\State=1-A\HF=-633.3239476\RMSD=3.063e-09\Dipole=-0.7752016,2.231826
 9,0.0331377\Quadrupole=-9.2823651,10.5961184,-1.3137533,7.0999818,1.65
 65438,0.0276769\PG=C01 [X(C11H15N1O2)]\\@


 The lyf so short, the craft so long to lerne.
                             -- Chaucer
 Job cpu time:       0 days  2 hours 41 minutes 56.8 seconds.
 Elapsed time:       0 days  0 hours 10 minutes 10.9 seconds.
 File lengths (MBytes):  RWF=    736 Int=      0 D2E=      0 Chk=     67 Scr=      1
 Normal termination of Gaussian 16 at Fri Jan 23 18:50:48 2026.
