 Entering Gaussian System, Link 0=g16
 Input=DDL-LR-4.gjf
 Output=DDL-LR-4.log
 Initial command:
 /data/home/wyx/g16/l1.exe "/scr/tmp/wyx/13106/Gau-1962719.inp" -scrdir="/scr/tmp/wyx/13106/"
 Entering Link 1 = /data/home/wyx/g16/l1.exe PID=   1962720.
  
 Copyright (c) 1988,1990,1992,1993,1995,1998,2003,2009,2016,
            Gaussian, Inc.  All Rights Reserved.
  
 This is part of the Gaussian(R) 16 program.  It is based on
 the Gaussian(R) 09 system (copyright 2009, Gaussian, Inc.),
 the Gaussian(R) 03 system (copyright 2003, Gaussian, Inc.),
 the Gaussian(R) 98 system (copyright 1998, Gaussian, Inc.),
 the Gaussian(R) 94 system (copyright 1995, Gaussian, Inc.),
 the Gaussian 92(TM) system (copyright 1992, Gaussian, Inc.),
 the Gaussian 90(TM) system (copyright 1990, Gaussian, Inc.),
 the Gaussian 88(TM) system (copyright 1988, Gaussian, Inc.),
 the Gaussian 86(TM) system (copyright 1986, Carnegie Mellon
 University), and the Gaussian 82(TM) system (copyright 1983,
 Carnegie Mellon University). Gaussian is a federally registered
 trademark of Gaussian, Inc.
  
 This software contains proprietary and confidential information,
 including trade secrets, belonging to Gaussian, Inc.
  
 This software is provided under written license and may be
 used, copied, transmitted, or stored only in accord with that
 written license.
  
 The following legend is applicable only to US Government
 contracts under FAR:
  
                    RESTRICTED RIGHTS LEGEND
  
 Use, reproduction and disclosure by the US Government is
 subject to restrictions as set forth in subparagraphs (a)
 and (c) of the Commercial Computer Software - Restricted
 Rights clause in FAR 52.227-19.
  
 Gaussian, Inc.
 340 Quinnipiac St., Bldg. 40, Wallingford CT 06492
  
  
 ---------------------------------------------------------------
 Warning -- This program may not be used in any manner that
 competes with the business of Gaussian, Inc. or will provide
 assistance to any competitor of Gaussian, Inc.  The licensee
 of this program is prohibited from giving any competitor of
 Gaussian, Inc. access to this program.  By using this program,
 the user acknowledges that Gaussian, Inc. is engaged in the
 business of creating and licensing software in the field of
 computational chemistry and represents and warrants to the
 licensee that it is not a competitor of Gaussian, Inc. and that
 it will not use this program in any manner prohibited above.
 ---------------------------------------------------------------
  

 Cite this work as:
 Gaussian 16, Revision A.03,
 M. J. Frisch, G. W. Trucks, H. B. Schlegel, G. E. Scuseria, 
 M. A. Robb, J. R. Cheeseman, G. Scalmani, V. Barone, 
 G. A. Petersson, H. Nakatsuji, X. Li, M. Caricato, A. V. Marenich, 
 J. Bloino, B. G. Janesko, R. Gomperts, B. Mennucci, H. P. Hratchian, 
 J. V. Ortiz, A. F. Izmaylov, J. L. Sonnenberg, D. Williams-Young, 
 F. Ding, F. Lipparini, F. Egidi, J. Goings, B. Peng, A. Petrone, 
 T. Henderson, D. Ranasinghe, V. G. Zakrzewski, J. Gao, N. Rega, 
 G. Zheng, W. Liang, M. Hada, M. Ehara, K. Toyota, R. Fukuda, 
 J. Hasegawa, M. Ishida, T. Nakajima, Y. Honda, O. Kitao, H. Nakai, 
 T. Vreven, K. Throssell, J. A. Montgomery, Jr., J. E. Peralta, 
 F. Ogliaro, M. J. Bearpark, J. J. Heyd, E. N. Brothers, K. N. Kudin, 
 V. N. Staroverov, T. A. Keith, R. Kobayashi, J. Normand, 
 K. Raghavachari, A. P. Rendell, J. C. Burant, S. S. Iyengar, 
 J. Tomasi, M. Cossi, J. M. Millam, M. Klene, C. Adamo, R. Cammi, 
 J. W. Ochterski, R. L. Martin, K. Morokuma, O. Farkas, 
 J. B. Foresman, and D. J. Fox, Gaussian, Inc., Wallingford CT, 2016.
 
 ******************************************
 Gaussian 16:  ES64L-G16RevA.03 25-Dec-2016
                23-Jan-2026 
 ******************************************
 %nprocshared=16
 Will use up to   16 processors via shared memory.
 %mem=16GB
 %chk=DDL-LR-4.chk
 ----------------------------------------------------------------------
 #p CAM-B3LYP TZVP em=gd3bj td(nstates=6,root=1) scrf=(Solvent=TetraHyd
 roFuran)
 ----------------------------------------------------------------------
 1/38=1,172=1/1;
 2/12=2,17=6,18=5,40=1/2;
 3/5=19,7=101,11=9,25=1,30=1,70=2201,72=20,74=-40,124=41/1,2,3,8;
 4//1;
 5/5=2,38=5,53=20/2;
 8/6=1,10=1,107=1,108=6/1;
 9/8=1,41=6,42=1,70=2/14;
 6/7=2,8=2,9=2,10=2/1;
 99/5=1,9=1/99;
 Leave Link    1 at Fri Jan 23 15:25:08 2026, MaxMem=  2147483648 cpu:               0.4 elap:               0.1
 (Enter /data/home/wyx/g16/l101.exe)
 -------------------
 Title Card Required
 -------------------
 Symbolic Z-matrix:
 Charge =  0 Multiplicity = 1
 O                     2.83942  -1.57264   0.04815 
 O                    -3.42865  -1.64625  -0.12159 
 N                    -0.6622    1.5172   -0.20202 
 H                    -0.97383   2.47747  -0.25197 
 C                    -1.24751  -0.7621   -0.2031 
 C                     0.68099   1.33158  -0.03114 
 C                    -1.63601   0.57565  -0.24318 
 C                    -2.21302  -1.84471  -0.17525 
 C                     0.1966   -1.08519  -0.20492 
 H                     0.41208  -1.89474   0.50037 
 H                     0.47093  -1.5538   -1.16735 
 C                     1.1478    0.02563   0.03642 
 C                     2.51755  -0.40116   0.27503 
 C                    -3.02447   1.10364  -0.34441 
 H                    -3.02232   2.18608  -0.46506 
 H                    -3.55258   0.66273  -1.1848 
 H                    -3.60497   0.85834   0.54102 
 C                    -1.71107  -3.26554  -0.18579 
 H                    -2.52311  -3.92694  -0.46895 
 H                    -0.87589  -3.4225   -0.86219 
 H                    -1.37616  -3.55639   0.80991 
 C                     3.56327   0.52911   0.84055 
 H                     4.06993   1.0699    0.03848 
 H                     3.1579    1.25731   1.53821 
 H                     4.30664  -0.08141   1.34861 
 C                     1.46912   2.59779   0.02607 
 H                     1.69839   2.89583   1.04969 
 H                     2.40805   2.50917  -0.51047 
 H                     0.91315   3.41594  -0.43033 
 
 ITRead=  0  0  0  0  0  0  0  0  0  0  0  0  0  0  0  0  0  0  0  0
 ITRead=  0  0  0  0  0  0  0  0  0
 MicOpt= -1 -1 -1 -1 -1 -1 -1 -1 -1 -1 -1 -1 -1 -1 -1 -1 -1 -1 -1 -1
 MicOpt= -1 -1 -1 -1 -1 -1 -1 -1 -1
 NAtoms=     29 NQM=       29 NQMF=       0 NMMI=      0 NMMIF=      0
                NMic=       0 NMicF=      0.
                    Isotopes and Nuclear Properties:
 (Nuclear quadrupole moments (NQMom) in fm**2, nuclear magnetic moments (NMagM)
  in nuclear magnetons)

  Atom         1           2           3           4           5           6           7           8           9          10
 IAtWgt=          16          16          14           1          12          12          12          12          12           1
 AtmWgt=  15.9949146  15.9949146  14.0030740   1.0078250  12.0000000  12.0000000  12.0000000  12.0000000  12.0000000   1.0078250
 NucSpn=           0           0           2           1           0           0           0           0           0           1
 AtZEff=  -0.0000000  -0.0000000  -0.0000000  -0.0000000  -0.0000000  -0.0000000  -0.0000000  -0.0000000  -0.0000000  -0.0000000
 NQMom=    0.0000000   0.0000000   2.0440000   0.0000000   0.0000000   0.0000000   0.0000000   0.0000000   0.0000000   0.0000000
 NMagM=    0.0000000   0.0000000   0.4037610   2.7928460   0.0000000   0.0000000   0.0000000   0.0000000   0.0000000   2.7928460
 AtZNuc=   8.0000000   8.0000000   7.0000000   1.0000000   6.0000000   6.0000000   6.0000000   6.0000000   6.0000000   1.0000000

  Atom        11          12          13          14          15          16          17          18          19          20
 IAtWgt=           1          12          12          12           1           1           1          12           1           1
 AtmWgt=   1.0078250  12.0000000  12.0000000  12.0000000   1.0078250   1.0078250   1.0078250  12.0000000   1.0078250   1.0078250
 NucSpn=           1           0           0           0           1           1           1           0           1           1
 AtZEff=  -0.0000000  -0.0000000  -0.0000000  -0.0000000  -0.0000000  -0.0000000  -0.0000000  -0.0000000  -0.0000000  -0.0000000
 NQMom=    0.0000000   0.0000000   0.0000000   0.0000000   0.0000000   0.0000000   0.0000000   0.0000000   0.0000000   0.0000000
 NMagM=    2.7928460   0.0000000   0.0000000   0.0000000   2.7928460   2.7928460   2.7928460   0.0000000   2.7928460   2.7928460
 AtZNuc=   1.0000000   6.0000000   6.0000000   6.0000000   1.0000000   1.0000000   1.0000000   6.0000000   1.0000000   1.0000000

  Atom        21          22          23          24          25          26          27          28          29
 IAtWgt=           1          12           1           1           1          12           1           1           1
 AtmWgt=   1.0078250  12.0000000   1.0078250   1.0078250   1.0078250  12.0000000   1.0078250   1.0078250   1.0078250
 NucSpn=           1           0           1           1           1           0           1           1           1
 AtZEff=  -0.0000000  -0.0000000  -0.0000000  -0.0000000  -0.0000000  -0.0000000  -0.0000000  -0.0000000  -0.0000000
 NQMom=    0.0000000   0.0000000   0.0000000   0.0000000   0.0000000   0.0000000   0.0000000   0.0000000   0.0000000
 NMagM=    2.7928460   0.0000000   2.7928460   2.7928460   2.7928460   0.0000000   2.7928460   2.7928460   2.7928460
 AtZNuc=   1.0000000   6.0000000   1.0000000   1.0000000   1.0000000   6.0000000   1.0000000   1.0000000   1.0000000
 Leave Link  101 at Fri Jan 23 15:25:09 2026, MaxMem=  2147483648 cpu:               0.8 elap:               0.1
 (Enter /data/home/wyx/g16/l202.exe)
                          Input orientation:                          
 ---------------------------------------------------------------------
 Center     Atomic      Atomic             Coordinates (Angstroms)
 Number     Number       Type             X           Y           Z
 ---------------------------------------------------------------------
      1          8           0        2.839421   -1.572640    0.048152
      2          8           0       -3.428654   -1.646247   -0.121592
      3          7           0       -0.662201    1.517198   -0.202023
      4          1           0       -0.973828    2.477465   -0.251968
      5          6           0       -1.247513   -0.762104   -0.203101
      6          6           0        0.680986    1.331579   -0.031141
      7          6           0       -1.636011    0.575649   -0.243178
      8          6           0       -2.213017   -1.844705   -0.175252
      9          6           0        0.196604   -1.085194   -0.204921
     10          1           0        0.412075   -1.894741    0.500373
     11          1           0        0.470926   -1.553803   -1.167351
     12          6           0        1.147796    0.025634    0.036418
     13          6           0        2.517546   -0.401163    0.275026
     14          6           0       -3.024467    1.103643   -0.344409
     15          1           0       -3.022323    2.186079   -0.465058
     16          1           0       -3.552581    0.662731   -1.184804
     17          1           0       -3.604974    0.858342    0.541022
     18          6           0       -1.711074   -3.265541   -0.185786
     19          1           0       -2.523113   -3.926939   -0.468945
     20          1           0       -0.875891   -3.422496   -0.862191
     21          1           0       -1.376159   -3.556394    0.809912
     22          6           0        3.563273    0.529112    0.840553
     23          1           0        4.069925    1.069899    0.038479
     24          1           0        3.157905    1.257314    1.538206
     25          1           0        4.306638   -0.081406    1.348611
     26          6           0        1.469123    2.597785    0.026070
     27          1           0        1.698388    2.895827    1.049694
     28          1           0        2.408054    2.509173   -0.510470
     29          1           0        0.913146    3.415943   -0.430325
 ---------------------------------------------------------------------
                    Distance matrix (angstroms):
                    1          2          3          4          5
     1  O    0.000000
     2  O    6.270805   0.000000
     3  N    4.676649   4.203227   0.000000
     4  H    5.570843   4.800851   1.010801   0.000000
     5  C    4.174102   2.354937   2.353255   3.251476   0.000000
     6  C    3.619339   5.075901   1.366677   2.024902   2.851699
     7  C    4.972877   2.857477   1.355180   2.013819   1.393600
     8  C    5.064687   1.232898   3.702450   4.496958   1.450861
     9  C    2.699283   3.669362   2.740438   3.750288   1.479819
    10  H    2.490032   3.898691   3.645375   4.647895   2.128843
    11  H    2.662249   4.038426   3.412753   4.379082   2.123581
    12  C    2.327276   4.874838   2.357479   3.255139   2.532865
    13  C    1.235894   6.088090   3.744125   4.555646   3.812421
    14  C    6.457691   2.788352   2.402416   2.470031   2.580416
    15  H    6.982220   3.869082   2.467137   2.080059   3.451138
    16  H    6.882932   2.545026   3.170216   3.288375   2.882227
    17  H    6.905275   2.596750   3.105820   3.189565   2.955873
    18  C    4.860828   2.361422   4.896426   5.790512   2.546053
    19  H    5.879361   2.478349   5.759589   6.592705   3.422573
    20  H    4.249028   3.196896   4.988192   5.932243   2.765897
    21  H    4.720876   2.954505   5.222555   6.139781   2.975030
    22  C    2.359920   7.385456   4.462948   5.057170   5.089215
    23  H    2.915004   7.976952   4.759300   5.244525   5.629364
    24  H    3.214083   7.387040   4.205847   4.665266   5.149554
    25  H    2.463270   8.027762   5.445123   6.082187   5.806871
    26  C    4.389835   6.482425   2.400466   2.461664   4.326833
    27  H    4.719347   6.949022   3.006625   3.001681   4.860894
    28  H    4.142383   7.175368   3.241237   3.391895   4.915170
    29  H    5.368932   6.676250   2.477715   2.115000   4.709156
                    6          7          8          9         10
     6  C    0.000000
     7  C    2.446398   0.000000
     8  C    4.299395   2.489109   0.000000
     9  C    2.470955   2.473528   2.526660   0.000000
    10  H    3.280848   3.293987   2.711103   1.095095   0.000000
    11  H    3.108139   3.134939   2.876184   1.105042   1.703234
    12  C    1.388513   2.851363   3.852017   1.482211   2.108170
    13  C    2.543440   4.298224   4.966366   2.466783   2.591248
    14  C    3.725651   1.488904   3.062649   3.896891   4.638295
    15  H    3.825304   2.136487   4.121430   4.596780   5.420354
    16  H    4.438624   2.137167   3.016764   4.251094   5.009888
    17  H    4.349802   2.138153   3.123629   4.334254   4.870093
    18  C    5.184533   3.842352   1.506928   2.897156   2.618715
    19  H    6.173324   4.594695   2.125585   3.942345   3.699288
    20  H    5.071069   4.116567   2.179270   2.654285   2.418568
    21  H    5.369497   4.272037   2.144938   3.100048   2.460627
    22  C    3.116309   5.311233   6.327116   3.877301   3.990092
    23  H    3.399740   5.734224   6.929355   4.439176   4.730994
    24  H    2.933171   5.159421   6.434692   4.158742   4.307218
    25  H    4.128631   6.187131   6.923676   4.507042   4.378962
    26  C    1.492552   3.715291   5.773595   3.903459   4.639515
    27  H    2.156428   4.262976   6.266756   4.435983   4.990581
    28  H    2.144586   4.490481   6.357902   4.231235   4.939655
    29  H    2.134905   3.821059   6.124735   4.563384   5.414853
                   11         12         13         14         15
    11  H    0.000000
    12  C    2.098055   0.000000
    13  C    2.756390   1.454409   0.000000
    14  C    4.467329   4.326073   5.775989   0.000000
    15  H    5.165532   4.723229   6.158871   1.089141   0.000000
    16  H    4.593684   4.898042   6.333199   1.086081   1.766295
    17  H    5.034873   4.851479   6.256385   1.086807   1.764813
    18  C    2.941877   4.365128   5.128181   4.565077   5.614047
    19  H    3.883789   5.417915   6.196195   5.057037   6.133369
    20  H    2.323586   4.097854   4.683709   5.036905   6.018388
    21  H    3.366254   4.449670   5.040092   5.075955   6.108306
    22  C    4.234716   2.595121   1.509562   6.718076   6.915218
    23  H    4.614177   3.103116   2.151711   7.104797   7.197179
    24  H    4.737328   2.795164   2.180878   6.464486   6.562842
    25  H    4.817749   3.422220   2.110848   7.616808   7.883182
    26  C    4.433546   2.592165   3.186669   4.749954   4.536937
    27  H    5.120660   3.093200   3.484433   5.240306   5.008326
    28  H    4.548816   2.838187   3.016463   5.613856   5.440170
    29  H    5.043525   3.430321   4.200228   4.567155   4.123310
                   16         17         18         19         20
    16  H    0.000000
    17  H    1.737666   0.000000
    18  C    4.452023   4.595815   0.000000
    19  H    4.757870   5.008929   1.084912   0.000000
    20  H    4.894673   5.267113   1.086135   1.767044   0.000000
    21  H    5.149439   4.952758   1.090036   1.757351   1.750464
    22  C    7.399683   7.182052   6.578108   7.656061   6.182291
    23  H    7.730770   7.694243   7.229542   8.288186   6.741952
    24  H    7.266288   6.847634   6.865517   7.948528   6.628276
    25  H    8.290914   8.008054   6.978965   8.045939   6.550506
    26  C    5.516173   5.388627   6.673614   7.665182   6.521647
    27  H    6.127999   5.704011   7.149356   8.165627   7.085437
    28  H    6.276404   6.323558   7.100701   8.108124   6.789160
    29  H    5.300201   5.281879   7.182518   8.107236   7.081766
                   21         22         23         24         25
    21  H    0.000000
    22  C    6.410171   0.000000
    23  H    7.187317   1.092003   0.000000
    24  H    6.652814   1.086886   1.765244   0.000000
    25  H    6.682808   1.087863   1.760109   1.774177   0.000000
    26  C    6.825244   3.054219   3.016415   2.633515   4.120518
    27  H    7.151328   3.020410   3.159234   2.248012   3.969413
    28  H    7.270129   2.660909   2.265981   2.515254   3.711051
    29  H    7.442620   4.119721   3.960928   3.684255   5.187663
                   26         27         28         29
    26  C    0.000000
    27  H    1.090503   0.000000
    28  H    1.085043   1.757054   0.000000
    29  H    1.089399   1.754304   1.750259   0.000000
 Stoichiometry    C11H15NO2
 Framework group  C1[X(C11H15NO2)]
 Deg. of freedom    81
 Full point group                 C1      NOp   1
 Largest Abelian subgroup         C1      NOp   1
 Largest concise Abelian subgroup C1      NOp   1
                         Standard orientation:                         
 ---------------------------------------------------------------------
 Center     Atomic      Atomic             Coordinates (Angstroms)
 Number     Number       Type             X           Y           Z
 ---------------------------------------------------------------------
      1          8           0        2.284489   -2.284716   -0.265779
      2          8           0       -3.625876   -0.258165    0.266831
      3          7           0        0.019246    1.803153   -0.095343
      4          1           0        0.045173    2.813601   -0.101714
      5          6           0       -1.295030   -0.148384   -0.050716
      6          6           0        1.231876    1.173058   -0.077574
      7          6           0       -1.213166    1.242725   -0.035386
      8          6           0       -2.560004   -0.847577    0.075651
      9          6           0       -0.051833   -0.933658   -0.217055
     10          1           0       -0.049903   -1.800142    0.452598
     11          1           0       -0.051243   -1.422289   -1.208194
     12          6           0        1.236839   -0.215441   -0.074088
     13          6           0        2.400211   -1.084620    0.005904
     14          6           0       -2.345944    2.207148    0.024106
     15          1           0       -1.992447    3.231362   -0.086595
     16          1           0       -3.074773    2.006329   -0.755670
     17          1           0       -2.881065    2.128968    0.966805
     18          6           0       -2.568780   -2.352405   -0.003397
     19          1           0       -3.580388   -2.691804   -0.199588
     20          1           0       -1.909010   -2.747470   -0.770415
     21          1           0       -2.250881   -2.783490    0.945962
     22          6           0        3.749943   -0.582781    0.458848
     23          1           0        4.323799   -0.205537   -0.390178
     24          1           0        3.686774    0.206108    1.203822
     25          1           0        4.292766   -1.428653    0.875131
     26          6           0        2.401241    2.100356   -0.097958
     27          1           0        2.821053    2.257789    0.896110
     28          1           0        3.195459    1.728687   -0.737019
     29          1           0        2.108949    3.076985   -0.482080
 ---------------------------------------------------------------------
 Rotational constants (GHZ):           1.0750734           0.4899629           0.3432279
 Leave Link  202 at Fri Jan 23 15:25:09 2026, MaxMem=  2147483648 cpu:               0.0 elap:               0.0
 (Enter /data/home/wyx/g16/l301.exe)
 Standard basis: TZVP (5D, 7F)
 Ernie: Thresh=  0.10000D-02 Tol=  0.10000D-05 Strict=F.
 There are   370 symmetry adapted cartesian basis functions of A   symmetry.
 There are   356 symmetry adapted basis functions of A   symmetry.
   356 basis functions,   610 primitive gaussians,   370 cartesian basis functions
    52 alpha electrons       52 beta electrons
       nuclear repulsion energy       899.4608969052 Hartrees.
 IExCor=20419 DFT=T Ex+Corr=CAM-B3LYP ExCW=0 ScaHFX=  1.000000
 ScaDFX=  1.000000  1.000000  1.000000  0.810000 ScalE2=  1.000000  1.000000
 IRadAn=      5 IRanWt=     -1 IRanGd=            0 ICorTp=0 IEmpDi=141
 HFx  wShort=  0.000000 wLong=  0.330000 cFull=  0.190000 cShort=  0.000000 cLong=  0.460000
 DFx  wShort=  0.000000 wLong=  0.330000 cFull=  0.190000 cShort=  0.000000 cLong=  0.460000
 NAtoms=   29 NActive=   29 NUniq=   29 SFac= 1.00D+00 NAtFMM=   60 NAOKFM=F Big=F
 Integral buffers will be    131072 words long.
 Raffenetti 1 integral format.
 Two-electron integral symmetry is turned on.
 R6Disp:  Grimme-D3(BJ) Dispersion energy=       -0.0261346867 Hartrees.
 Nuclear repulsion after empirical dispersion term =      899.4347622185 Hartrees.
 ------------------------------------------------------------------------------
 Polarizable Continuum Model (PCM)
 =================================
 Model                : PCM.
 Atomic radii         : UFF (Universal Force Field).
 Polarization charges : Total charges.
 Charge compensation  : None.
 Solution method      : On-the-fly selection.
 Cavity type          : Scaled VdW (van der Waals Surface) (Alpha=1.100).
 Cavity algorithm     : GePol (No added spheres)
                        Default sphere list used, NSphG=   29.
                        Lebedev-Laikov grids with approx.  5.0 points / Ang**2.
                        Smoothing algorithm: York/Karplus (Gamma=1.0000).
                        Polarization charges: spherical gaussians, with
                                              point-specific exponents (IZeta= 3).
                        Self-potential: point-specific (ISelfS= 7).
                        Self-field    : sphere-specific E.n sum rule (ISelfD= 2).
 Solvent              : TetraHydroFuran, Eps=   7.425700 Eps(inf)=   1.974025
 ------------------------------------------------------------------------------
 GePol: Number of generator spheres                  =      29
 GePol: Total number of spheres                      =      29
 GePol: Number of exposed spheres                    =      29 (100.00%)
 GePol: Number of points                             =    2102
 GePol: Average weight of points                     =       0.13
 GePol: Minimum weight of points                     =   0.14D-11
 GePol: Maximum weight of points                     =    0.20577
 GePol: Number of points with low weight             =     127
 GePol: Fraction of low-weight points (<1% of avg)   =       6.04%
 GePol: Cavity surface area                          =    269.055 Ang**2
 GePol: Cavity volume                                =    287.082 Ang**3
 Leave Link  301 at Fri Jan 23 15:25:09 2026, MaxMem=  2147483648 cpu:               0.6 elap:               0.0
 (Enter /data/home/wyx/g16/l302.exe)
 NPDir=0 NMtPBC=     1 NCelOv=     1 NCel=       1 NClECP=     1 NCelD=      1
         NCelK=      1 NCelE2=     1 NClLst=     1 CellRange=     0.0.
 One-electron integrals computed using PRISM.
 One-electron integral symmetry used in STVInt
 NBasis=   356 RedAO= T EigKep=  4.19D-05  NBF=   356
 NBsUse=   356 1.00D-06 EigRej= -1.00D+00 NBFU=   356
 Precomputing XC quadrature grid using
 IXCGrd= 4 IRadAn=           5 IRanWt=          -1 IRanGd=           0 AccXCQ= 0.00D+00.
 Generated NRdTot=       0 NPtTot=           0 NUsed=           0 NTot=          32
 NSgBfM=   366   366   366   366   366 MxSgAt=    29 MxSgA2=    29.
 Leave Link  302 at Fri Jan 23 15:25:09 2026, MaxMem=  2147483648 cpu:               3.1 elap:               0.2
 (Enter /data/home/wyx/g16/l303.exe)
 DipDrv:  MaxL=1.
 Leave Link  303 at Fri Jan 23 15:25:10 2026, MaxMem=  2147483648 cpu:               0.6 elap:               0.0
 (Enter /data/home/wyx/g16/l308.exe)
 Leave Link  308 at Fri Jan 23 15:25:11 2026, MaxMem=  2147483648 cpu:               0.7 elap:               0.1
 (Enter /data/home/wyx/g16/l401.exe)
 ExpMin= 9.52D-02 ExpMax= 2.70D+04 ExpMxC= 9.22D+02 IAcc=3 IRadAn=         5 AccDes= 0.00D+00
 Harris functional with IExCor=20419 and IRadAn=       5 diagonalized for initial guess.
 HarFok:  IExCor=20419 AccDes= 0.00D+00 IRadAn=         5 IDoV= 1 UseB2=F ITyADJ=14
 ICtDFT=  3500011 ScaDFX=  1.000000  1.000000  1.000000  1.000000
 FoFCou: FMM=F IPFlag=           0 FMFlag=      100000 FMFlg1=           0
         NFxFlg=           0 DoJE=T BraDBF=F KetDBF=T FulRan=T
         wScrn=  0.000000 ICntrl=       500 IOpCl=  0 I1Cent=   200000004 NGrid=           0
         NMat0=    1 NMatS0=      1 NMatT0=    0 NMatD0=    1 NMtDS0=    0 NMtDT0=    0
 Petite list used in FoFCou.
 Harris En= -608.710502666525    
 JPrj=0 DoOrth=F DoCkMO=F.
 Leave Link  401 at Fri Jan 23 15:25:12 2026, MaxMem=  2147483648 cpu:              11.8 elap:               0.8
 (Enter /data/home/wyx/g16/l502.exe)
 Integral symmetry usage will be decided dynamically.
 Closed shell SCF:
 Using DIIS extrapolation, IDIIS=  1040.
 NGot=  2147483648 LenX=  2147200095 LenY=  2147062754
 Requested convergence on RMS density matrix=1.00D-08 within 128 cycles.
 Requested convergence on MAX density matrix=1.00D-06.
 Requested convergence on             energy=1.00D-06.
 No special actions if energy rises.
 Fock matrices will be formed incrementally for  20 cycles.

 Cycle   1  Pass 1  IDiag  1:
 FoFJK:  IHMeth= 1 ICntrl=       0 DoSepK=T KAlg= 0 I1Cent=           0 FoldK=F
 IRaf=         1 NMat=       1 IRICut=       1 DoRegI=T DoRafI=F ISym2E= 0 IDoP0=0 IntGTp=1.
 FoFCou: FMM=F IPFlag=           0 FMFlag=      100000 FMFlg1=           0
         NFxFlg=           0 DoJE=T BraDBF=F KetDBF=F FulRan=T
         wScrn=  0.000000 ICntrl=       500 IOpCl=  0 I1Cent=           0 NGrid=           0
         NMat0=    1 NMatS0=      1 NMatT0=    0 NMatD0=    1 NMtDS0=    0 NMtDT0=    0
 Symmetry not used in FoFCou.
 Inv3:  Mode=1 IEnd=    13255212.
 Iteration    1 A*A^-1 deviation from unit magnitude is 2.89D-15 for   1082.
 Iteration    1 A*A^-1 deviation from orthogonality  is 1.88D-15 for   1397      5.
 Iteration    1 A^-1*A deviation from unit magnitude is 2.89D-15 for   1082.
 Iteration    1 A^-1*A deviation from orthogonality  is 2.62D-15 for   1093     55.
 E= -633.118630807476    
 DIIS: error= 4.14D-02 at cycle   1 NSaved=   1.
 NSaved= 1 IEnMin= 1 EnMin= -633.118630807476     IErMin= 1 ErrMin= 4.14D-02
 ErrMax= 4.14D-02  0.00D+00 EMaxC= 1.00D-01 BMatC= 1.10D+00 BMatP= 1.10D+00
 IDIUse=3 WtCom= 5.86D-01 WtEn= 4.14D-01
 Coeff-Com:  0.100D+01
 Coeff-En:   0.100D+01
 Coeff:      0.100D+01
 Gap=     0.205 Goal=   None    Shift=    0.000
 GapD=    0.205 DampG=1.000 DampE=0.500 DampFc=0.5000 IDamp=-1.
 Damping current iteration by 5.00D-01
 RMSDP=3.98D-03 MaxDP=1.70D-01              OVMax= 1.64D-01

 Cycle   2  Pass 1  IDiag  1:
 RMSU=  1.77D-03    CP:  9.34D-01
 E= -633.215623537385     Delta-E=       -0.096992729910 Rises=F Damp=T
 DIIS: error= 1.97D-02 at cycle   2 NSaved=   2.
 NSaved= 2 IEnMin= 2 EnMin= -633.215623537385     IErMin= 2 ErrMin= 1.97D-02
 ErrMax= 1.97D-02  0.00D+00 EMaxC= 1.00D-01 BMatC= 2.24D-01 BMatP= 1.10D+00
 IDIUse=3 WtCom= 8.03D-01 WtEn= 1.97D-01
 Coeff-Com: -0.577D+00 0.158D+01
 Coeff-En:   0.000D+00 0.100D+01
 Coeff:     -0.463D+00 0.146D+01
 Gap=     0.227 Goal=   None    Shift=    0.000
 RMSDP=1.65D-03 MaxDP=5.88D-02 DE=-9.70D-02 OVMax= 1.54D-01

 Cycle   3  Pass 1  IDiag  1:
 RMSU=  1.52D-03    CP:  9.02D-01  1.26D+00
 E= -633.261377368357     Delta-E=       -0.045753830971 Rises=F Damp=F
 DIIS: error= 1.61D-02 at cycle   3 NSaved=   3.
 NSaved= 3 IEnMin= 3 EnMin= -633.261377368357     IErMin= 3 ErrMin= 1.61D-02
 ErrMax= 1.61D-02  0.00D+00 EMaxC= 1.00D-01 BMatC= 7.03D-02 BMatP= 2.24D-01
 IDIUse=3 WtCom= 8.39D-01 WtEn= 1.61D-01
 Coeff-Com: -0.364D+00 0.800D+00 0.564D+00
 Coeff-En:   0.000D+00 0.183D-01 0.982D+00
 Coeff:     -0.306D+00 0.674D+00 0.631D+00
 Gap=     0.222 Goal=   None    Shift=    0.000
 RMSDP=1.36D-03 MaxDP=6.74D-02 DE=-4.58D-02 OVMax= 9.08D-02

 Cycle   4  Pass 1  IDiag  1:
 RMSU=  5.32D-04    CP:  8.59D-01  1.74D+00  5.33D-01
 E= -633.314516564884     Delta-E=       -0.053139196527 Rises=F Damp=F
 DIIS: error= 5.48D-03 at cycle   4 NSaved=   4.
 NSaved= 4 IEnMin= 4 EnMin= -633.314516564884     IErMin= 4 ErrMin= 5.48D-03
 ErrMax= 5.48D-03  0.00D+00 EMaxC= 1.00D-01 BMatC= 9.14D-03 BMatP= 7.03D-02
 IDIUse=3 WtCom= 9.45D-01 WtEn= 5.48D-02
 Coeff-Com: -0.161D+00 0.349D+00 0.369D+00 0.443D+00
 Coeff-En:   0.000D+00 0.000D+00 0.653D-01 0.935D+00
 Coeff:     -0.152D+00 0.330D+00 0.352D+00 0.470D+00
 Gap=     0.219 Goal=   None    Shift=    0.000
 RMSDP=3.69D-04 MaxDP=2.25D-02 DE=-5.31D-02 OVMax= 2.25D-02

 Cycle   5  Pass 1  IDiag  1:
 RMSU=  1.05D-04    CP:  8.69D-01  1.66D+00  6.87D-01  6.50D-01
 E= -633.321885098710     Delta-E=       -0.007368533826 Rises=F Damp=F
 DIIS: error= 4.64D-04 at cycle   5 NSaved=   5.
 NSaved= 5 IEnMin= 5 EnMin= -633.321885098710     IErMin= 5 ErrMin= 4.64D-04
 ErrMax= 4.64D-04  0.00D+00 EMaxC= 1.00D-01 BMatC= 8.20D-05 BMatP= 9.14D-03
 IDIUse=3 WtCom= 9.95D-01 WtEn= 4.64D-03
 Coeff-Com: -0.187D-01 0.398D-01 0.573D-01 0.137D+00 0.784D+00
 Coeff-En:   0.000D+00 0.000D+00 0.000D+00 0.000D+00 0.100D+01
 Coeff:     -0.186D-01 0.396D-01 0.570D-01 0.137D+00 0.785D+00
 Gap=     0.220 Goal=   None    Shift=    0.000
 RMSDP=1.35D-04 MaxDP=8.91D-03 DE=-7.37D-03 OVMax= 1.99D-03

 Cycle   6  Pass 1  IDiag  1:
 RMSU=  5.20D-05    CP:  8.63D-01  1.70D+00  6.92D-01  7.83D-01  1.14D+00
 E= -633.321936916015     Delta-E=       -0.000051817305 Rises=F Damp=F
 DIIS: error= 4.17D-04 at cycle   6 NSaved=   6.
 NSaved= 6 IEnMin= 6 EnMin= -633.321936916015     IErMin= 6 ErrMin= 4.17D-04
 ErrMax= 4.17D-04  0.00D+00 EMaxC= 1.00D-01 BMatC= 2.85D-05 BMatP= 8.20D-05
 IDIUse=3 WtCom= 9.96D-01 WtEn= 4.17D-03
 Coeff-Com:  0.169D-01-0.369D-01-0.297D-01 0.125D-02 0.472D+00 0.576D+00
 Coeff-En:   0.000D+00 0.000D+00 0.000D+00 0.000D+00 0.110D+00 0.890D+00
 Coeff:      0.168D-01-0.368D-01-0.296D-01 0.125D-02 0.471D+00 0.578D+00
 Gap=     0.220 Goal=   None    Shift=    0.000
 RMSDP=2.58D-05 MaxDP=1.29D-03 DE=-5.18D-05 OVMax= 2.66D-03

 Cycle   7  Pass 1  IDiag  1:
 RMSU=  1.73D-05    CP:  8.64D-01  1.70D+00  6.94D-01  7.74D-01  1.22D+00
                    CP:  7.45D-01
 E= -633.321961198536     Delta-E=       -0.000024282521 Rises=F Damp=F
 DIIS: error= 4.77D-05 at cycle   7 NSaved=   7.
 NSaved= 7 IEnMin= 7 EnMin= -633.321961198536     IErMin= 7 ErrMin= 4.77D-05
 ErrMax= 4.77D-05  0.00D+00 EMaxC= 1.00D-01 BMatC= 9.87D-07 BMatP= 2.85D-05
 IDIUse=1 WtCom= 1.00D+00 WtEn= 0.00D+00
 Coeff-Com:  0.377D-02-0.814D-02-0.756D-02-0.959D-02 0.151D-01 0.155D+00
 Coeff-Com:  0.851D+00
 Coeff:      0.377D-02-0.814D-02-0.756D-02-0.959D-02 0.151D-01 0.155D+00
 Coeff:      0.851D+00
 Gap=     0.220 Goal=   None    Shift=    0.000
 RMSDP=1.75D-05 MaxDP=7.59D-04 DE=-2.43D-05 OVMax= 5.73D-04

 Cycle   8  Pass 1  IDiag  1:
 RMSU=  4.89D-06    CP:  8.63D-01  1.70D+00  6.96D-01  7.90D-01  1.27D+00
                    CP:  8.76D-01  1.03D+00
 E= -633.321962588560     Delta-E=       -0.000001390025 Rises=F Damp=F
 DIIS: error= 2.75D-05 at cycle   8 NSaved=   8.
 NSaved= 8 IEnMin= 8 EnMin= -633.321962588560     IErMin= 8 ErrMin= 2.75D-05
 ErrMax= 2.75D-05  0.00D+00 EMaxC= 1.00D-01 BMatC= 1.29D-07 BMatP= 9.87D-07
 IDIUse=1 WtCom= 1.00D+00 WtEn= 0.00D+00
 Coeff-Com: -0.485D-03 0.112D-02 0.407D-03-0.539D-02-0.632D-01-0.515D-02
 Coeff-Com:  0.306D+00 0.767D+00
 Coeff:     -0.485D-03 0.112D-02 0.407D-03-0.539D-02-0.632D-01-0.515D-02
 Coeff:      0.306D+00 0.767D+00
 Gap=     0.220 Goal=   None    Shift=    0.000
 RMSDP=4.76D-06 MaxDP=2.22D-04 DE=-1.39D-06 OVMax= 4.03D-04

 Cycle   9  Pass 1  IDiag  1:
 RMSU=  1.42D-06    CP:  8.63D-01  1.70D+00  6.97D-01  7.95D-01  1.29D+00
                    CP:  9.07D-01  1.13D+00  1.24D+00
 E= -633.321962805036     Delta-E=       -0.000000216475 Rises=F Damp=F
 DIIS: error= 5.28D-06 at cycle   9 NSaved=   9.
 NSaved= 9 IEnMin= 9 EnMin= -633.321962805036     IErMin= 9 ErrMin= 5.28D-06
 ErrMax= 5.28D-06  0.00D+00 EMaxC= 1.00D-01 BMatC= 1.91D-08 BMatP= 1.29D-07
 IDIUse=1 WtCom= 1.00D+00 WtEn= 0.00D+00
 Coeff-Com: -0.880D-03 0.192D-02 0.167D-02-0.144D-03-0.250D-01-0.201D-01
 Coeff-Com: -0.356D-01 0.274D+00 0.804D+00
 Coeff:     -0.880D-03 0.192D-02 0.167D-02-0.144D-03-0.250D-01-0.201D-01
 Coeff:     -0.356D-01 0.274D+00 0.804D+00
 Gap=     0.220 Goal=   None    Shift=    0.000
 RMSDP=2.25D-06 MaxDP=1.33D-04 DE=-2.16D-07 OVMax= 1.28D-04

 Cycle  10  Pass 1  IDiag  1:
 RMSU=  9.27D-07    CP:  8.63D-01  1.70D+00  6.97D-01  7.96D-01  1.29D+00
                    CP:  9.28D-01  1.16D+00  1.36D+00  1.04D+00
 E= -633.321962834469     Delta-E=       -0.000000029434 Rises=F Damp=F
 DIIS: error= 2.24D-06 at cycle  10 NSaved=  10.
 NSaved=10 IEnMin=10 EnMin= -633.321962834469     IErMin=10 ErrMin= 2.24D-06
 ErrMax= 2.24D-06  0.00D+00 EMaxC= 1.00D-01 BMatC= 1.65D-09 BMatP= 1.91D-08
 IDIUse=1 WtCom= 1.00D+00 WtEn= 0.00D+00
 Coeff-Com: -0.261D-03 0.564D-03 0.536D-03 0.261D-03-0.441D-02-0.538D-02
 Coeff-Com: -0.386D-01 0.405D-01 0.282D+00 0.725D+00
 Coeff:     -0.261D-03 0.564D-03 0.536D-03 0.261D-03-0.441D-02-0.538D-02
 Coeff:     -0.386D-01 0.405D-01 0.282D+00 0.725D+00
 Gap=     0.220 Goal=   None    Shift=    0.000
 RMSDP=4.78D-07 MaxDP=2.47D-05 DE=-2.94D-08 OVMax= 3.19D-05

 Cycle  11  Pass 1  IDiag  1:
 RMSU=  3.01D-07    CP:  8.63D-01  1.70D+00  6.97D-01  7.97D-01  1.29D+00
                    CP:  9.30D-01  1.16D+00  1.39D+00  1.17D+00  8.62D-01
 E= -633.321962836340     Delta-E=       -0.000000001871 Rises=F Damp=F
 DIIS: error= 1.36D-06 at cycle  11 NSaved=  11.
 NSaved=11 IEnMin=11 EnMin= -633.321962836340     IErMin=11 ErrMin= 1.36D-06
 ErrMax= 1.36D-06  0.00D+00 EMaxC= 1.00D-01 BMatC= 5.32D-10 BMatP= 1.65D-09
 IDIUse=1 WtCom= 1.00D+00 WtEn= 0.00D+00
 Coeff-Com:  0.170D-04-0.400D-04-0.476D-05 0.165D-03 0.220D-02 0.108D-02
 Coeff-Com: -0.160D-01-0.287D-01 0.182D-02 0.411D+00 0.629D+00
 Coeff:      0.170D-04-0.400D-04-0.476D-05 0.165D-03 0.220D-02 0.108D-02
 Coeff:     -0.160D-01-0.287D-01 0.182D-02 0.411D+00 0.629D+00
 Gap=     0.220 Goal=   None    Shift=    0.000
 RMSDP=2.02D-07 MaxDP=1.15D-05 DE=-1.87D-09 OVMax= 1.25D-05

 Cycle  12  Pass 1  IDiag  1:
 RMSU=  9.09D-08    CP:  8.63D-01  1.70D+00  6.97D-01  7.97D-01  1.29D+00
                    CP:  9.31D-01  1.16D+00  1.40D+00  1.17D+00  9.73D-01
                    CP:  8.05D-01
 E= -633.321962836832     Delta-E=       -0.000000000492 Rises=F Damp=F
 DIIS: error= 2.92D-07 at cycle  12 NSaved=  12.
 NSaved=12 IEnMin=12 EnMin= -633.321962836832     IErMin=12 ErrMin= 2.92D-07
 ErrMax= 2.92D-07  0.00D+00 EMaxC= 1.00D-01 BMatC= 3.81D-11 BMatP= 5.32D-10
 IDIUse=1 WtCom= 1.00D+00 WtEn= 0.00D+00
 Coeff-Com:  0.242D-04-0.539D-04-0.354D-04 0.582D-04 0.133D-02 0.912D-03
 Coeff-Com: -0.428D-02-0.154D-01-0.248D-01 0.126D+00 0.291D+00 0.624D+00
 Coeff:      0.242D-04-0.539D-04-0.354D-04 0.582D-04 0.133D-02 0.912D-03
 Coeff:     -0.428D-02-0.154D-01-0.248D-01 0.126D+00 0.291D+00 0.624D+00
 Gap=     0.220 Goal=   None    Shift=    0.000
 RMSDP=4.46D-08 MaxDP=1.95D-06 DE=-4.92D-10 OVMax= 2.22D-06

 Cycle  13  Pass 1  IDiag  1:
 RMSU=  2.41D-08    CP:  8.63D-01  1.70D+00  6.97D-01  7.97D-01  1.29D+00
                    CP:  9.31D-01  1.16D+00  1.41D+00  1.18D+00  9.79D-01
                    CP:  8.93D-01  9.63D-01
 E= -633.321962836863     Delta-E=       -0.000000000032 Rises=F Damp=F
 DIIS: error= 5.94D-08 at cycle  13 NSaved=  13.
 NSaved=13 IEnMin=13 EnMin= -633.321962836863     IErMin=13 ErrMin= 5.94D-08
 ErrMax= 5.94D-08  0.00D+00 EMaxC= 1.00D-01 BMatC= 2.50D-12 BMatP= 3.81D-11
 IDIUse=1 WtCom= 1.00D+00 WtEn= 0.00D+00
 Coeff-Com:  0.620D-05-0.134D-04-0.126D-04-0.827D-05 0.121D-03 0.142D-03
 Coeff-Com:  0.867D-03-0.410D-03-0.984D-02-0.208D-01 0.317D-02 0.191D+00
 Coeff-Com:  0.836D+00
 Coeff:      0.620D-05-0.134D-04-0.126D-04-0.827D-05 0.121D-03 0.142D-03
 Coeff:      0.867D-03-0.410D-03-0.984D-02-0.208D-01 0.317D-02 0.191D+00
 Coeff:      0.836D+00
 Gap=     0.220 Goal=   None    Shift=    0.000
 RMSDP=1.65D-08 MaxDP=6.95D-07 DE=-3.17D-11 OVMax= 1.02D-06

 Cycle  14  Pass 1  IDiag  1:
 RMSU=  9.75D-09    CP:  8.63D-01  1.70D+00  6.97D-01  7.97D-01  1.29D+00
                    CP:  9.31D-01  1.16D+00  1.41D+00  1.19D+00  9.82D-01
                    CP:  9.25D-01  1.05D+00  1.02D+00
 E= -633.321962836871     Delta-E=       -0.000000000008 Rises=F Damp=F
 DIIS: error= 2.91D-08 at cycle  14 NSaved=  14.
 NSaved=14 IEnMin=14 EnMin= -633.321962836871     IErMin=14 ErrMin= 2.91D-08
 ErrMax= 2.91D-08  0.00D+00 EMaxC= 1.00D-01 BMatC= 2.08D-13 BMatP= 2.50D-12
 IDIUse=1 WtCom= 1.00D+00 WtEn= 0.00D+00
 Coeff-Com:  0.618D-06-0.121D-05-0.188D-05-0.629D-05-0.376D-04 0.342D-05
 Coeff-Com:  0.508D-03 0.944D-03-0.146D-02-0.137D-01-0.140D-01 0.159D-01
 Coeff-Com:  0.242D+00 0.770D+00
 Coeff:      0.618D-06-0.121D-05-0.188D-05-0.629D-05-0.376D-04 0.342D-05
 Coeff:      0.508D-03 0.944D-03-0.146D-02-0.137D-01-0.140D-01 0.159D-01
 Coeff:      0.242D+00 0.770D+00
 Gap=     0.220 Goal=   None    Shift=    0.000
 RMSDP=5.17D-09 MaxDP=3.24D-07 DE=-7.73D-12 OVMax= 3.62D-07

 Error on total polarization charges =  0.01434
 SCF Done:  E(RCAM-B3LYP) =  -633.321962837     A.U. after   14 cycles
            NFock= 14  Conv=0.52D-08     -V/T= 2.0042
 KE= 6.306625780654D+02 PE=-3.274839632148D+03 EE= 1.111420329028D+03
 Leave Link  502 at Fri Jan 23 15:26:07 2026, MaxMem=  2147483648 cpu:             875.1 elap:              55.2
 (Enter /data/home/wyx/g16/l801.exe)
 DoSCS=F DFT=T ScalE2(SS,OS)=  1.000000  1.000000
 ExpMin= 9.52D-02 ExpMax= 2.70D+04 ExpMxC= 9.22D+02 IAcc=3 IRadAn=         5 AccDes= 0.00D+00
 HarFok:  IExCor=  205 AccDes= 0.00D+00 IRadAn=         5 IDoV=-2 UseB2=F ITyADJ=14
 ICtDFT= 12500011 ScaDFX=  1.000000  1.000000  1.000000  1.000000
 Largest valence mixing into a core orbital is  5.59D-05
 Largest core mixing into a valence orbital is  1.15D-05
 Range of M.O.s used for correlation:    15   356
 NBasis=   356 NAE=    52 NBE=    52 NFC=    14 NFV=     0
 NROrb=    342 NOA=    38 NOB=    38 NVA=   304 NVB=   304

 **** Warning!!: The largest alpha MO coefficient is  0.61261200D+02

 Leave Link  801 at Fri Jan 23 15:26:08 2026, MaxMem=  2147483648 cpu:               1.0 elap:               0.1
 (Enter /data/home/wyx/g16/l914.exe)
 RHF ground state
 Two-electron integrals replicated using symmetry.
 MDV=  2147483648 DFT=T DoStab=F Mixed=T DoRPA=T DoScal=F NonHer=T
 NEqPCM:  Using non-equilibrium solvation (IEInf=1, Eps=   7.4257, EpsInf=   1.9740)
 Inv3:  Mode=1 IEnd=    13255212.
 Iteration    1 A*A^-1 deviation from unit magnitude is 3.55D-15 for    729.
 Iteration    1 A*A^-1 deviation from orthogonality  is 1.78D-15 for   1906    285.
 Iteration    1 A^-1*A deviation from unit magnitude is 3.44D-15 for    731.
 Iteration    1 A^-1*A deviation from orthogonality  is 1.96D-15 for   1389    890.
 Making orbital integer symmetry assigments:
 Orbital symmetries:
       Occupied  (A) (A) (A) (A) (A) (A) (A) (A) (A) (A) (A) (A)
                 (A) (A) (A) (A) (A) (A) (A) (A) (A) (A) (A) (A)
                 (A) (A) (A) (A) (A) (A) (A) (A) (A) (A) (A) (A)
                 (A) (A) (A) (A) (A) (A) (A) (A) (A) (A) (A) (A)
                 (A) (A) (A) (A)
       Virtual   (A) (A) (A) (A) (A) (A) (A) (A) (A) (A) (A) (A)
                 (A) (A) (A) (A) (A) (A) (A) (A) (A) (A) (A) (A)
                 (A) (A) (A) (A) (A) (A) (A) (A) (A) (A) (A) (A)
                 (A) (A) (A) (A) (A) (A) (A) (A) (A) (A) (A) (A)
                 (A) (A) (A) (A) (A) (A) (A) (A) (A) (A) (A) (A)
                 (A) (A) (A) (A) (A) (A) (A) (A) (A) (A) (A) (A)
                 (A) (A) (A) (A) (A) (A) (A) (A) (A) (A) (A) (A)
                 (A) (A) (A) (A) (A) (A) (A) (A) (A) (A) (A) (A)
                 (A) (A) (A) (A) (A) (A) (A) (A) (A) (A) (A) (A)
                 (A) (A) (A) (A) (A) (A) (A) (A) (A) (A) (A) (A)
                 (A) (A) (A) (A) (A) (A) (A) (A) (A) (A) (A) (A)
                 (A) (A) (A) (A) (A) (A) (A) (A) (A) (A) (A) (A)
                 (A) (A) (A) (A) (A) (A) (A) (A) (A) (A) (A) (A)
                 (A) (A) (A) (A) (A) (A) (A) (A) (A) (A) (A) (A)
                 (A) (A) (A) (A) (A) (A) (A) (A) (A) (A) (A) (A)
                 (A) (A) (A) (A) (A) (A) (A) (A) (A) (A) (A) (A)
                 (A) (A) (A) (A) (A) (A) (A) (A) (A) (A) (A) (A)
                 (A) (A) (A) (A) (A) (A) (A) (A) (A) (A) (A) (A)
                 (A) (A) (A) (A) (A) (A) (A) (A) (A) (A) (A) (A)
                 (A) (A) (A) (A) (A) (A) (A) (A) (A) (A) (A) (A)
                 (A) (A) (A) (A) (A) (A) (A) (A) (A) (A) (A) (A)
                 (A) (A) (A) (A) (A) (A) (A) (A) (A) (A) (A) (A)
                 (A) (A) (A) (A) (A) (A) (A) (A) (A) (A) (A) (A)
                 (A) (A) (A) (A) (A) (A) (A) (A) (A) (A) (A) (A)
                 (A) (A) (A) (A) (A) (A) (A) (A) (A) (A) (A) (A)
                 (A) (A) (A) (A)
    24 initial guesses have been made.
 Convergence on wavefunction:    0.001000000000000
 Davidson Disk Diagonalization:  ConvIn= 1.00D-03 SkipCon=T Conv= 1.00D-03.
 Max sub-space:  2000 roots to seek:    24 dimension of matrix:        23104
 Iteration     1 Dimension    24 NMult     0 NNew     24
 CISAX will form    24 AO SS matrices at one time.
 NMat=    24 NSing=    24 JSym2X= 0.
 FoFJK:  IHMeth= 1 ICntrl=       0 DoSepK=T KAlg= 0 I1Cent=           0 FoldK=F
 IRaf=         1 NMat=      48 IRICut=       1 DoRegI=T DoRafI=F ISym2E= 0 IDoP0=3 IntGTp=3.
 New state      2 was old state      3
 New state      3 was old state      4
 New state      4 was old state      2
 New state      5 was old state      6
 New state      6 was old state      5
 Excitation Energies [eV] at current iteration:
 Root      1 :     3.515933009093187
 Root      2 :     4.176129910578889
 Root      3 :     4.388152460601555
 Root      4 :     5.317084503459538
 Root      5 :     5.915386475027072
 Root      6 :     6.206211061109390
 Root      7 :     6.473303454791894
 Root      8 :     6.696711008230080
 Root      9 :     6.828080089469287
 Root     10 :     6.965203222845636
 Root     11 :     7.093036366781341
 Root     12 :     7.300784276687735
 Root     13 :     7.355191412629664
 Root     14 :     7.374958880842100
 Root     15 :     7.697175885879830
 Root     16 :     7.946213375322747
 Root     17 :     7.971996042066260
 Root     18 :     8.104298892544730
 Root     19 :     8.151998280835121
 Root     20 :     8.321183079101392
 Root     21 :     8.381370198893244
 Root     22 :     8.560498589301886
 Root     23 :     8.654577511642998
 Root     24 :     8.834023078661890
 Iteration     2 Dimension    36 NMult    24 NNew     12
 CISAX will form    12 AO SS matrices at one time.
 NMat=    12 NSing=    12 JSym2X= 0.
 Root      1 not converged, maximum delta is    0.040568848771526
 Root      2 not converged, maximum delta is    0.075949642215796
 Root      3 not converged, maximum delta is    0.090344031442752
 Root      4 not converged, maximum delta is    0.250463799584402
 New state      5 was old state      6
 Root      5 not converged, maximum delta is    0.242004811664653
 New state      6 was old state      5
 Root      6 not converged, maximum delta is    0.093612696956259
 Excitation Energies [eV] at current iteration:
 Root      1 :     3.064951965540971   Change is   -0.450981043552216
 Root      2 :     3.960103773510246   Change is   -0.216026137068644
 Root      3 :     4.128837289509982   Change is   -0.259315171091573
 Root      4 :     4.974531783028699   Change is   -0.342552720430839
 Root      5 :     5.421937875365506   Change is   -0.784273185743883
 Root      6 :     5.811047668085968   Change is   -0.104338806941103
 Iteration     3 Dimension    48 NMult    36 NNew     12
 CISAX will form    12 AO SS matrices at one time.
 NMat=    12 NSing=    12 JSym2X= 0.
 Root      1 not converged, maximum delta is    0.007598484760474
 Root      2 not converged, maximum delta is    0.016728868303102
 Root      3 not converged, maximum delta is    0.013599162313956
 Root      4 not converged, maximum delta is    0.020486561004233
 Root      5 not converged, maximum delta is    0.021568395588901
 Root      6 not converged, maximum delta is    0.006718720444536
 Excitation Energies [eV] at current iteration:
 Root      1 :     3.047969055493297   Change is   -0.016982910047673
 Root      2 :     3.947451308416662   Change is   -0.012652465093584
 Root      3 :     4.114818911386463   Change is   -0.014018378123520
 Root      4 :     4.954425659944471   Change is   -0.020106123084229
 Root      5 :     5.392740912080451   Change is   -0.029196963285055
 Root      6 :     5.806685418876350   Change is   -0.004362249209618
 Iteration     4 Dimension    60 NMult    48 NNew     12
 CISAX will form    12 AO SS matrices at one time.
 NMat=    12 NSing=    12 JSym2X= 0.
 Root      1 not converged, maximum delta is    0.002521406903168
 Root      2 not converged, maximum delta is    0.001845249766345
 Root      3 not converged, maximum delta is    0.002421660110403
 Root      4 not converged, maximum delta is    0.002337276386837
 Root      5 not converged, maximum delta is    0.003418793457848
 Root      6 not converged, maximum delta is    0.001953332816842
 Excitation Energies [eV] at current iteration:
 Root      1 :     3.046655495927358   Change is   -0.001313559565939
 Root      2 :     3.946855231247421   Change is   -0.000596077169241
 Root      3 :     4.113853920243778   Change is   -0.000964991142685
 Root      4 :     4.952546049617031   Change is   -0.001879610327439
 Root      5 :     5.389646539709127   Change is   -0.003094372371324
 Root      6 :     5.806420620467633   Change is   -0.000264798408718
 Iteration     5 Dimension    72 NMult    60 NNew     12
 CISAX will form    12 AO SS matrices at one time.
 NMat=    12 NSing=    12 JSym2X= 0.
 Root      1 has converged.
 Root      2 has converged.
 Root      3 has converged.
 Root      4 has converged.
 Root      5 not converged, maximum delta is    0.001091043091802
 Root      6 has converged.
 Excitation Energies [eV] at current iteration:
 Root      1 :     3.046592390769431   Change is   -0.000063105157927
 Root      2 :     3.946809957635975   Change is   -0.000045273611445
 Root      3 :     4.113809337081128   Change is   -0.000044583162649
 Root      4 :     4.952413597868468   Change is   -0.000132451748564
 Root      5 :     5.389413598362761   Change is   -0.000232941346366
 Root      6 :     5.806398340983901   Change is   -0.000022279483731
 Iteration     6 Dimension    74 NMult    72 NNew      2
 CISAX will form     2 AO SS matrices at one time.
 NMat=     2 NSing=     2 JSym2X= 0.
 Root      1 has converged.
 Root      2 has converged.
 Root      3 has converged.
 Root      4 has converged.
 Root      5 has converged.
 Root      6 has converged.
 Excitation Energies [eV] at current iteration:
 Root      1 :     3.046592348332643   Change is   -0.000000042436788
 Root      2 :     3.946809920659933   Change is   -0.000000036976043
 Root      3 :     4.113809278194777   Change is   -0.000000058886351
 Root      4 :     4.952410487079923   Change is   -0.000003110788544
 Root      5 :     5.389392040815504   Change is   -0.000021557547257
 Root      6 :     5.806398116900804   Change is   -0.000000224083098
 Convergence achieved on expansion vectors.
 ***********************************************************************
 Excited states from <AA,BB:AA,BB> singles matrix:
 ***********************************************************************
 
 1PDM for each excited state written to RWF  633
 Ground to excited state transition densities written to RWF  633
 Ground to excited state transition electric dipole moments (Au):
       state          X           Y           Z        Dip. S.      Osc.
         1         1.4817     -0.1411     -0.0411      2.2171      0.1655
         2        -0.0198     -0.0332      0.0352      0.0027      0.0003
         3        -0.0623      0.0838     -0.0237      0.0115      0.0012
         4         0.1551      1.2786     -0.0588      1.6622      0.2017
         5        -0.0784     -1.5488      0.0208      2.4054      0.3176
         6        -0.0167     -0.2027     -0.0583      0.0448      0.0064
 Ground to excited state transition velocity dipole moments (Au):
       state          X           Y           Z        Dip. S.      Osc.
         1        -0.1592      0.0117      0.0049      0.0255      0.1518
         2         0.0026      0.0052     -0.0019      0.0000      0.0002
         3         0.0088     -0.0105      0.0002      0.0002      0.0008
         4        -0.0329     -0.2205      0.0075      0.0497      0.1822
         5         0.0169      0.2994     -0.0048      0.0900      0.3028
         6         0.0048      0.0410      0.0323      0.0027      0.0086
 Ground to excited state transition magnetic dipole moments (Au):
       state          X           Y           Z
         1         0.0280     -0.0592      1.4798
         2         0.7819     -0.1146     -0.1169
         3         0.1877     -0.9659     -0.2166
         4        -0.0105      0.0415     -0.0071
         5         0.1226     -0.0995      0.2666
         6        -0.0225      0.0072     -0.0256
 Ground to excited state transition velocity quadrupole moments (Au):
       state          XX          YY          ZZ          XY          XZ          YZ
         1         0.1396     -0.0757     -0.0056      0.4655     -0.0328     -0.0169
         2         0.0224     -0.0081     -0.0086     -0.0151      0.0089      0.0716
         3        -0.0284      0.0051      0.0178     -0.0605      0.0587      0.0086
         4         1.1441     -0.2157     -0.0095     -0.0201     -0.0590      0.0249
         5        -0.6564      0.3081      0.0397      0.2035      0.0651      0.0058
         6         0.0750      0.1370     -0.1172     -0.0110     -0.0230     -0.0902
 <0|del|b> * <b|rxdel|0> + <0|del|b> * <b|delr+rdel|0>
 Rotatory Strengths (R) in cgs (10**-40 erg-esu-cm/Gauss)
       state          XX          YY          ZZ    R(velocity)    E-M Angle
         1        29.1362     10.1375    -25.9397      4.4447       89.49
         2        -0.9343      5.8786      3.1622      2.7022       70.05
         3        25.1416      3.9560     26.0445     18.3807       31.46
         4       -43.4422     -0.7276      9.7660    -11.4679      156.19
         5       -91.9999      3.3325    -14.8591    -34.5088      108.18
         6         0.0933     -1.6770     -0.5304     -0.7047      110.47
 1/2[<0|r|b>*<b|rxdel|0> + (<0|rxdel|b>*<b|r|0>)*]
 Rotatory Strengths (R) in cgs (10**-40 erg-esu-cm/Gauss)
       state          XX          YY          ZZ     R(length)
         1       -29.3000     -5.9121     43.0138      2.6006
         2        10.9252     -2.6929      2.9079      3.7134
         3         8.2719     57.2052     -3.6252     20.6173
         4         1.1547    -37.5159     -0.2952    -12.2188
         5         6.7996   -108.9607     -3.9188    -35.3600
         6        -0.2657      1.0343     -1.0538     -0.0951
  1/2[<0|del|b>*<b|r|0> + (<0|r|b>*<b|del|0>)*] (Au)
       state          X           Y           Z        Dip. S.   Osc.(frdel)
         1        -0.2358     -0.0016     -0.0002      0.2377      0.1584
         2        -0.0001     -0.0002     -0.0001      0.0003      0.0002
         3        -0.0005     -0.0009     -0.0000      0.0014      0.0010
         4        -0.0051     -0.2819     -0.0004      0.2874      0.1916
         5        -0.0013     -0.4637     -0.0001      0.4652      0.3101
         6        -0.0001     -0.0083     -0.0019      0.0103      0.0068

 Excitation energies and oscillator strengths:
 
 Excited State   1:      Singlet-A      3.0466 eV  406.96 nm  f=0.1655  <S**2>=0.000
      52 -> 53         0.70171
 This state for optimization and/or second-order correction.
 Total Energy, E(TD-HF/TD-DFT) =  -633.210002628    
 Copying the excited state density for this state as the 1-particle RhoCI density.
 
 Excited State   2:      Singlet-A      3.9468 eV  314.14 nm  f=0.0003  <S**2>=0.000
      50 -> 54         0.16945
      51 -> 53         0.58626
      51 -> 54         0.31587
 
 Excited State   3:      Singlet-A      4.1138 eV  301.39 nm  f=0.0012  <S**2>=0.000
      49 -> 53         0.25675
      49 -> 54        -0.14883
      50 -> 53         0.53412
      50 -> 54        -0.24480
      50 -> 58         0.11187
      51 -> 54         0.19672
 
 Excited State   4:      Singlet-A      4.9524 eV  250.35 nm  f=0.2017  <S**2>=0.000
      52 -> 54         0.69931
 
 Excited State   5:      Singlet-A      5.3894 eV  230.05 nm  f=0.3176  <S**2>=0.000
      49 -> 53         0.61652
      50 -> 53        -0.29777
 
 Excited State   6:      Singlet-A      5.8064 eV  213.53 nm  f=0.0064  <S**2>=0.000
      52 -> 55         0.65400
      52 -> 56         0.15342
      52 -> 57         0.12146
 SavETr:  write IOETrn=   770 NScale= 10 NData=  16 NLR=1 NState=    6 LETran=     118.
 Leave Link  914 at Fri Jan 23 15:28:17 2026, MaxMem=  2147483648 cpu:            2049.0 elap:             128.7
 (Enter /data/home/wyx/g16/l601.exe)
 Copying SCF densities to generalized density rwf, IOpCl= 0 IROHF=0.

 **********************************************************************

            Population analysis using the SCF density.

 **********************************************************************

 Orbital symmetries:
       Occupied  (A) (A) (A) (A) (A) (A) (A) (A) (A) (A) (A) (A)
                 (A) (A) (A) (A) (A) (A) (A) (A) (A) (A) (A) (A)
                 (A) (A) (A) (A) (A) (A) (A) (A) (A) (A) (A) (A)
                 (A) (A) (A) (A) (A) (A) (A) (A) (A) (A) (A) (A)
                 (A) (A) (A) (A)
       Virtual   (A) (A) (A) (A) (A) (A) (A) (A) (A) (A) (A) (A)
                 (A) (A) (A) (A) (A) (A) (A) (A) (A) (A) (A) (A)
                 (A) (A) (A) (A) (A) (A) (A) (A) (A) (A) (A) (A)
                 (A) (A) (A) (A) (A) (A) (A) (A) (A) (A) (A) (A)
                 (A) (A) (A) (A) (A) (A) (A) (A) (A) (A) (A) (A)
                 (A) (A) (A) (A) (A) (A) (A) (A) (A) (A) (A) (A)
                 (A) (A) (A) (A) (A) (A) (A) (A) (A) (A) (A) (A)
                 (A) (A) (A) (A) (A) (A) (A) (A) (A) (A) (A) (A)
                 (A) (A) (A) (A) (A) (A) (A) (A) (A) (A) (A) (A)
                 (A) (A) (A) (A) (A) (A) (A) (A) (A) (A) (A) (A)
                 (A) (A) (A) (A) (A) (A) (A) (A) (A) (A) (A) (A)
                 (A) (A) (A) (A) (A) (A) (A) (A) (A) (A) (A) (A)
                 (A) (A) (A) (A) (A) (A) (A) (A) (A) (A) (A) (A)
                 (A) (A) (A) (A) (A) (A) (A) (A) (A) (A) (A) (A)
                 (A) (A) (A) (A) (A) (A) (A) (A) (A) (A) (A) (A)
                 (A) (A) (A) (A) (A) (A) (A) (A) (A) (A) (A) (A)
                 (A) (A) (A) (A) (A) (A) (A) (A) (A) (A) (A) (A)
                 (A) (A) (A) (A) (A) (A) (A) (A) (A) (A) (A) (A)
                 (A) (A) (A) (A) (A) (A) (A) (A) (A) (A) (A) (A)
                 (A) (A) (A) (A) (A) (A) (A) (A) (A) (A) (A) (A)
                 (A) (A) (A) (A) (A) (A) (A) (A) (A) (A) (A) (A)
                 (A) (A) (A) (A) (A) (A) (A) (A) (A) (A) (A) (A)
                 (A) (A) (A) (A) (A) (A) (A) (A) (A) (A) (A) (A)
                 (A) (A) (A) (A) (A) (A) (A) (A) (A) (A) (A) (A)
                 (A) (A) (A) (A) (A) (A) (A) (A) (A) (A) (A) (A)
                 (A) (A) (A) (A)
 The electronic state is 1-A.
 Alpha  occ. eigenvalues --  -19.17800 -19.16930 -14.44738 -10.33353 -10.32781
 Alpha  occ. eigenvalues --  -10.32777 -10.32147 -10.26208 -10.25372 -10.25043
 Alpha  occ. eigenvalues --  -10.24667 -10.24470 -10.24222 -10.23594  -1.11450
 Alpha  occ. eigenvalues --   -1.10903  -1.08422  -0.91451  -0.90515  -0.83961
 Alpha  occ. eigenvalues --   -0.82689  -0.81694  -0.78554  -0.73880  -0.72103
 Alpha  occ. eigenvalues --   -0.68701  -0.61604  -0.58319  -0.57018  -0.55176
 Alpha  occ. eigenvalues --   -0.54670  -0.54013  -0.52531  -0.51808  -0.50875
 Alpha  occ. eigenvalues --   -0.49736  -0.49521  -0.49288  -0.48690  -0.48050
 Alpha  occ. eigenvalues --   -0.47199  -0.45281  -0.45153  -0.43948  -0.43270
 Alpha  occ. eigenvalues --   -0.42172  -0.42152  -0.41549  -0.32628  -0.32165
 Alpha  occ. eigenvalues --   -0.31123  -0.25215
 Alpha virt. eigenvalues --   -0.03177   0.02561   0.06230   0.08021   0.08395
 Alpha virt. eigenvalues --    0.09769   0.10719   0.11584   0.12522   0.13414
 Alpha virt. eigenvalues --    0.13865   0.14827   0.15573   0.16346   0.16934
 Alpha virt. eigenvalues --    0.17483   0.17838   0.18063   0.18374   0.19222
 Alpha virt. eigenvalues --    0.19862   0.22011   0.22761   0.23490   0.23822
 Alpha virt. eigenvalues --    0.23964   0.24748   0.25633   0.26272   0.26672
 Alpha virt. eigenvalues --    0.27290   0.27998   0.28542   0.29376   0.30131
 Alpha virt. eigenvalues --    0.31654   0.31902   0.32349   0.33426   0.34307
 Alpha virt. eigenvalues --    0.34733   0.35859   0.36694   0.37827   0.38506
 Alpha virt. eigenvalues --    0.39687   0.41011   0.41374   0.41846   0.42487
 Alpha virt. eigenvalues --    0.44003   0.44780   0.45562   0.46213   0.46452
 Alpha virt. eigenvalues --    0.47296   0.47741   0.47925   0.48410   0.49169
 Alpha virt. eigenvalues --    0.49575   0.50581   0.51208   0.51429   0.51555
 Alpha virt. eigenvalues --    0.52691   0.52726   0.53310   0.53715   0.54212
 Alpha virt. eigenvalues --    0.54392   0.55354   0.55924   0.56699   0.58238
 Alpha virt. eigenvalues --    0.58451   0.59915   0.61026   0.61612   0.63024
 Alpha virt. eigenvalues --    0.64033   0.65187   0.66460   0.66795   0.67664
 Alpha virt. eigenvalues --    0.68681   0.69465   0.70845   0.71332   0.72140
 Alpha virt. eigenvalues --    0.73091   0.74522   0.75028   0.75954   0.77685
 Alpha virt. eigenvalues --    0.79049   0.80353   0.83205   0.86412   0.87378
 Alpha virt. eigenvalues --    0.91128   0.95342   1.02161   1.04077   1.22223
 Alpha virt. eigenvalues --    1.24493   1.27268   1.28371   1.29182   1.30524
 Alpha virt. eigenvalues --    1.32053   1.33017   1.34413   1.35015   1.36265
 Alpha virt. eigenvalues --    1.36643   1.37768   1.38436   1.38888   1.39689
 Alpha virt. eigenvalues --    1.39897   1.40311   1.40808   1.41316   1.41968
 Alpha virt. eigenvalues --    1.43376   1.43536   1.44231   1.45379   1.47342
 Alpha virt. eigenvalues --    1.48021   1.49472   1.50128   1.50334   1.50444
 Alpha virt. eigenvalues --    1.51335   1.52277   1.52795   1.55366   1.58443
 Alpha virt. eigenvalues --    1.59328   1.60256   1.60885   1.61566   1.62493
 Alpha virt. eigenvalues --    1.62661   1.63068   1.63743   1.64466   1.65817
 Alpha virt. eigenvalues --    1.66486   1.67030   1.67562   1.67949   1.68590
 Alpha virt. eigenvalues --    1.69058   1.69842   1.70111   1.71126   1.72446
 Alpha virt. eigenvalues --    1.74140   1.74833   1.75697   1.76593   1.78524
 Alpha virt. eigenvalues --    1.81353   1.82856   1.83922   1.85828   1.86548
 Alpha virt. eigenvalues --    1.86591   1.87996   1.88643   1.88977   1.90213
 Alpha virt. eigenvalues --    1.91270   1.94481   1.95070   1.99077   1.99725
 Alpha virt. eigenvalues --    2.01527   2.03895   2.05585   2.06821   2.09522
 Alpha virt. eigenvalues --    2.10379   2.11822   2.15655   2.17471   2.19686
 Alpha virt. eigenvalues --    2.20332   2.21248   2.22097   2.22982   2.26389
 Alpha virt. eigenvalues --    2.27131   2.27502   2.29309   2.31299   2.32347
 Alpha virt. eigenvalues --    2.33812   2.34339   2.36886   2.37942   2.39097
 Alpha virt. eigenvalues --    2.39499   2.40292   2.41447   2.42830   2.45060
 Alpha virt. eigenvalues --    2.45875   2.47914   2.49213   2.49845   2.51281
 Alpha virt. eigenvalues --    2.52444   2.54209   2.54693   2.56448   2.57524
 Alpha virt. eigenvalues --    2.58757   2.60876   2.61875   2.62525   2.63376
 Alpha virt. eigenvalues --    2.64709   2.65652   2.66579   2.67446   2.68426
 Alpha virt. eigenvalues --    2.71739   2.72049   2.73785   2.74850   2.75178
 Alpha virt. eigenvalues --    2.76486   2.76881   2.77374   2.78223   2.78965
 Alpha virt. eigenvalues --    2.80703   2.81886   2.83122   2.83952   2.84928
 Alpha virt. eigenvalues --    2.85516   2.86465   2.88831   2.89220   2.92015
 Alpha virt. eigenvalues --    2.97455   2.98918   3.00899   3.06740   3.10784
 Alpha virt. eigenvalues --    3.12328   3.14529   3.17861   3.19046   3.21457
 Alpha virt. eigenvalues --    3.22159   3.23645   3.25099   3.25812   3.26733
 Alpha virt. eigenvalues --    3.28601   3.30222   3.32619   3.34577   3.36607
 Alpha virt. eigenvalues --    3.38079   3.38817   3.39499   3.39764   3.41794
 Alpha virt. eigenvalues --    3.42133   3.44140   3.45049   3.47723   3.48509
 Alpha virt. eigenvalues --    3.49617   3.50121   3.55772   3.58472   3.60061
 Alpha virt. eigenvalues --    3.61185   3.91057   4.00724   4.33394   4.36378
 Alpha virt. eigenvalues --   21.67548  21.80773  22.08152  22.10470  22.11699
 Alpha virt. eigenvalues --   22.14911  22.15204  22.18304  22.19385  22.25011
 Alpha virt. eigenvalues --   22.27780  31.91570  43.63966  43.66789
          Condensed to atoms (all electrons):
               1          2          3          4          5          6
     1  O    7.930342   0.000000  -0.000182   0.000019   0.019444   0.009550
     2  O    0.000000   7.978276   0.000403   0.000016  -0.194670   0.001327
     3  N   -0.000182   0.000403   6.370533   0.369568  -0.120904   0.328378
     4  H    0.000019   0.000016   0.369568   0.412400   0.016287  -0.046078
     5  C    0.019444  -0.194670  -0.120904   0.016287   7.160273  -0.080596
     6  C    0.009550   0.001327   0.328378  -0.046078  -0.080596   5.569611
     7  C   -0.000109  -0.048199   0.393022  -0.037071   0.465653  -0.127105
     8  C   -0.000692   0.703259   0.004234  -0.000857  -0.342636   0.033315
     9  C   -0.004301   0.026262   0.013788   0.000090  -0.707612  -0.045608
    10  H    0.009097   0.000002  -0.001249   0.000023  -0.116133   0.028701
    11  H    0.007511   0.000124   0.003590   0.000036  -0.058013  -0.019745
    12  C   -0.230867  -0.003123  -0.088317   0.014475   0.192443  -0.081331
    13  C    0.715056  -0.000016   0.001640   0.000556   0.083655   0.125836
    14  C   -0.000008  -0.005417  -0.033040  -0.010406  -0.086766   0.010938
    15  H   -0.000000   0.004180   0.004559   0.002185   0.021442   0.006412
    16  H    0.000000   0.002188  -0.000261   0.000796  -0.005995  -0.001241
    17  H   -0.000000   0.003210  -0.002142   0.000916  -0.008873  -0.001373
    18  C    0.000258  -0.101069  -0.000497   0.000021  -0.253805   0.000049
    19  H   -0.000001   0.007641   0.000006  -0.000001   0.024034   0.000017
    20  H    0.000156   0.004213   0.000113   0.000001   0.045521  -0.001247
    21  H   -0.000004   0.000755   0.000012  -0.000001   0.002400   0.000199
    22  C   -0.105776   0.000000  -0.000199   0.000119   0.004101  -0.023519
    23  H    0.001387   0.000000   0.000017  -0.000012  -0.000021   0.008885
    24  H    0.005040  -0.000000   0.000165  -0.000056  -0.000729  -0.026397
    25  H    0.006654   0.000000   0.000022  -0.000003  -0.000142  -0.000822
    26  C    0.000791   0.000010  -0.025909  -0.006523   0.000588   0.192790
    27  H   -0.000053  -0.000000  -0.002460   0.000492   0.000375  -0.032832
    28  H   -0.000233  -0.000000   0.001220   0.000738   0.000050  -0.047590
    29  H    0.000023   0.000000   0.001909   0.001986  -0.000339  -0.049175
               7          8          9         10         11         12
     1  O   -0.000109  -0.000692  -0.004301   0.009097   0.007511  -0.230867
     2  O   -0.048199   0.703259   0.026262   0.000002   0.000124  -0.003123
     3  N    0.393022   0.004234   0.013788  -0.001249   0.003590  -0.088317
     4  H   -0.037071  -0.000857   0.000090   0.000023   0.000036   0.014475
     5  C    0.465653  -0.342636  -0.707612  -0.116133  -0.058013   0.192443
     6  C   -0.127105   0.033315  -0.045608   0.028701  -0.019745  -0.081331
     7  C    5.411431  -0.235138  -0.218208   0.016040  -0.006436   0.026335
     8  C   -0.235138   5.409698   0.202958  -0.009599  -0.001393  -0.051275
     9  C   -0.218208   0.202958   6.426121   0.538218   0.419884  -0.134301
    10  H    0.016040  -0.009599   0.538218   0.533656  -0.049004  -0.110018
    11  H   -0.006436  -0.001393   0.419884  -0.049004   0.579743  -0.013709
    12  C    0.026335  -0.051275  -0.134301  -0.110018  -0.013709   7.373825
    13  C    0.019051  -0.009283  -0.239562  -0.000995  -0.007218  -0.489908
    14  C    0.289567  -0.031408   0.005903   0.000477  -0.000858  -0.000272
    15  H   -0.085839   0.005410   0.000759  -0.000004   0.000044  -0.001613
    16  H   -0.023980  -0.006810  -0.000365  -0.000054   0.000178   0.000179
    17  H   -0.019249  -0.001675   0.000922   0.000060  -0.000061   0.000362
    18  C   -0.001320   0.326308   0.000482   0.007345  -0.013357  -0.001040
    19  H    0.000256  -0.052962  -0.002045   0.000592   0.000105  -0.000159
    20  H    0.003895  -0.071564  -0.008460  -0.007374   0.003023   0.007309
    21  H   -0.000343  -0.024251  -0.009540  -0.000687   0.000728  -0.002577
    22  C    0.000144  -0.000069   0.009786  -0.001080   0.003203  -0.251760
    23  H   -0.000007   0.000002  -0.002205  -0.000128   0.000178  -0.011259
    24  H   -0.000018   0.000007   0.002820   0.000084  -0.000216   0.065949
    25  H    0.000010   0.000002   0.000208  -0.000039  -0.000096   0.019826
    26  C    0.002679   0.000810   0.021930   0.000152  -0.000726  -0.085322
    27  H   -0.000821  -0.000014  -0.000448   0.000040  -0.000010  -0.017783
    28  H   -0.000742   0.000001  -0.000134   0.000013  -0.000105  -0.007571
    29  H    0.003107  -0.000003  -0.000535  -0.000015   0.000088   0.023223
              13         14         15         16         17         18
     1  O    0.715056  -0.000008  -0.000000   0.000000  -0.000000   0.000258
     2  O   -0.000016  -0.005417   0.004180   0.002188   0.003210  -0.101069
     3  N    0.001640  -0.033040   0.004559  -0.000261  -0.002142  -0.000497
     4  H    0.000556  -0.010406   0.002185   0.000796   0.000916   0.000021
     5  C    0.083655  -0.086766   0.021442  -0.005995  -0.008873  -0.253805
     6  C    0.125836   0.010938   0.006412  -0.001241  -0.001373   0.000049
     7  C    0.019051   0.289567  -0.085839  -0.023980  -0.019249  -0.001320
     8  C   -0.009283  -0.031408   0.005410  -0.006810  -0.001675   0.326308
     9  C   -0.239562   0.005903   0.000759  -0.000365   0.000922   0.000482
    10  H   -0.000995   0.000477  -0.000004  -0.000054   0.000060   0.007345
    11  H   -0.007218  -0.000858   0.000044   0.000178  -0.000061  -0.013357
    12  C   -0.489908  -0.000272  -0.001613   0.000179   0.000362  -0.001040
    13  C    5.566283   0.000115  -0.000041  -0.000005  -0.000008   0.001337
    14  C    0.000115   5.029339   0.390518   0.415754   0.407912   0.001167
    15  H   -0.000041   0.390518   0.581342  -0.027584  -0.025920   0.000235
    16  H   -0.000005   0.415754  -0.027584   0.508340  -0.025841  -0.000178
    17  H   -0.000008   0.407912  -0.025920  -0.025841   0.505399   0.000090
    18  C    0.001337   0.001167   0.000235  -0.000178   0.000090   5.314763
    19  H   -0.000012   0.000034  -0.000004   0.000038  -0.000035   0.396375
    20  H    0.000882   0.000089  -0.000015  -0.000030   0.000000   0.379682
    21  H   -0.000150  -0.000209  -0.000005   0.000012  -0.000008   0.400126
    22  C    0.280247  -0.000011   0.000002  -0.000000   0.000000   0.000035
    23  H   -0.021891  -0.000001   0.000000  -0.000000   0.000000  -0.000002
    24  H   -0.099359   0.000003   0.000000  -0.000000   0.000000   0.000001
    25  H   -0.035035   0.000000   0.000000   0.000000  -0.000000  -0.000001
    26  C   -0.054004   0.000620   0.000266   0.000019  -0.000083   0.000009
    27  H    0.006726  -0.000101  -0.000004   0.000004  -0.000005  -0.000000
    28  H   -0.002365   0.000057  -0.000008  -0.000002   0.000001  -0.000000
    29  H   -0.001291  -0.000143   0.000100  -0.000002  -0.000000  -0.000000
              19         20         21         22         23         24
     1  O   -0.000001   0.000156  -0.000004  -0.105776   0.001387   0.005040
     2  O    0.007641   0.004213   0.000755   0.000000   0.000000  -0.000000
     3  N    0.000006   0.000113   0.000012  -0.000199   0.000017   0.000165
     4  H   -0.000001   0.000001  -0.000001   0.000119  -0.000012  -0.000056
     5  C    0.024034   0.045521   0.002400   0.004101  -0.000021  -0.000729
     6  C    0.000017  -0.001247   0.000199  -0.023519   0.008885  -0.026397
     7  C    0.000256   0.003895  -0.000343   0.000144  -0.000007  -0.000018
     8  C   -0.052962  -0.071564  -0.024251  -0.000069   0.000002   0.000007
     9  C   -0.002045  -0.008460  -0.009540   0.009786  -0.002205   0.002820
    10  H    0.000592  -0.007374  -0.000687  -0.001080  -0.000128   0.000084
    11  H    0.000105   0.003023   0.000728   0.003203   0.000178  -0.000216
    12  C   -0.000159   0.007309  -0.002577  -0.251760  -0.011259   0.065949
    13  C   -0.000012   0.000882  -0.000150   0.280247  -0.021891  -0.099359
    14  C    0.000034   0.000089  -0.000209  -0.000011  -0.000001   0.000003
    15  H   -0.000004  -0.000015  -0.000005   0.000002   0.000000   0.000000
    16  H    0.000038  -0.000030   0.000012  -0.000000  -0.000000  -0.000000
    17  H   -0.000035   0.000000  -0.000008   0.000000   0.000000   0.000000
    18  C    0.396375   0.379682   0.400126   0.000035  -0.000002   0.000001
    19  H    0.507734  -0.024919  -0.009928  -0.000000   0.000000   0.000000
    20  H   -0.024919   0.540616  -0.023620   0.000032  -0.000000  -0.000001
    21  H   -0.009928  -0.023620   0.492587  -0.000012   0.000000   0.000000
    22  C   -0.000000   0.000032  -0.000012   5.429730   0.400351   0.396542
    23  H    0.000000  -0.000000   0.000000   0.400351   0.495280  -0.027878
    24  H    0.000000  -0.000001   0.000000   0.396542  -0.027878   0.548779
    25  H   -0.000000  -0.000000   0.000000   0.382486  -0.007926  -0.022426
    26  C    0.000000  -0.000017   0.000003  -0.032588  -0.010648   0.016566
    27  H    0.000000   0.000000  -0.000000  -0.010802   0.000896  -0.001807
    28  H   -0.000000  -0.000000   0.000000   0.004432   0.000069  -0.007460
    29  H    0.000000   0.000000  -0.000000   0.002071   0.000172   0.000604
              25         26         27         28         29
     1  O    0.006654   0.000791  -0.000053  -0.000233   0.000023
     2  O    0.000000   0.000010  -0.000000  -0.000000   0.000000
     3  N    0.000022  -0.025909  -0.002460   0.001220   0.001909
     4  H   -0.000003  -0.006523   0.000492   0.000738   0.001986
     5  C   -0.000142   0.000588   0.000375   0.000050  -0.000339
     6  C   -0.000822   0.192790  -0.032832  -0.047590  -0.049175
     7  C    0.000010   0.002679  -0.000821  -0.000742   0.003107
     8  C    0.000002   0.000810  -0.000014   0.000001  -0.000003
     9  C    0.000208   0.021930  -0.000448  -0.000134  -0.000535
    10  H   -0.000039   0.000152   0.000040   0.000013  -0.000015
    11  H   -0.000096  -0.000726  -0.000010  -0.000105   0.000088
    12  C    0.019826  -0.085322  -0.017783  -0.007571   0.023223
    13  C   -0.035035  -0.054004   0.006726  -0.002365  -0.001291
    14  C    0.000000   0.000620  -0.000101   0.000057  -0.000143
    15  H    0.000000   0.000266  -0.000004  -0.000008   0.000100
    16  H    0.000000   0.000019   0.000004  -0.000002  -0.000002
    17  H   -0.000000  -0.000083  -0.000005   0.000001  -0.000000
    18  C   -0.000001   0.000009  -0.000000  -0.000000  -0.000000
    19  H   -0.000000   0.000000   0.000000  -0.000000   0.000000
    20  H   -0.000000  -0.000017   0.000000  -0.000000   0.000000
    21  H    0.000000   0.000003  -0.000000   0.000000  -0.000000
    22  C    0.382486  -0.032588  -0.010802   0.004432   0.002071
    23  H   -0.007926  -0.010648   0.000896   0.000069   0.000172
    24  H   -0.022426   0.016566  -0.001807  -0.007460   0.000604
    25  H    0.493067   0.001912   0.000123   0.000591  -0.000036
    26  C    0.001912   5.238266   0.426828   0.431746   0.387918
    27  H    0.000123   0.426828   0.480852  -0.027659  -0.017148
    28  H    0.000591   0.431746  -0.027659   0.505206  -0.024925
    29  H   -0.000036   0.387918  -0.017148  -0.024925   0.518760
 Mulliken charges:
               1
     1  O   -0.363101
     2  O   -0.379371
     3  N   -0.218018
     4  H    0.280281
     5  C   -0.059030
     6  C    0.268649
     7  C    0.173395
     8  C    0.153621
     9  C   -0.296808
    10  H    0.161880
    11  H    0.152511
    12  C   -0.141721
    13  C    0.159758
    14  C   -0.383854
    15  H    0.123582
    16  H    0.164841
    17  H    0.166401
    18  C   -0.457014
    19  H    0.153233
    20  H    0.151714
    21  H    0.174512
    22  C   -0.487465
    23  H    0.174742
    24  H    0.149786
    25  H    0.161625
    26  C   -0.508081
    27  H    0.195613
    28  H    0.174668
    29  H    0.153652
 Sum of Mulliken charges =  -0.00000
 Mulliken charges with hydrogens summed into heavy atoms:
               1
     1  O   -0.363101
     2  O   -0.379371
     3  N    0.062263
     5  C   -0.059030
     6  C    0.268649
     7  C    0.173395
     8  C    0.153621
     9  C    0.017583
    12  C   -0.141721
    13  C    0.159758
    14  C    0.070970
    18  C    0.022445
    22  C   -0.001311
    26  C    0.015851
 Electronic spatial extent (au):  <R**2>=           3203.6069
 Charge=              0.0000 electrons
 Dipole moment (field-independent basis, Debye):
    X=              4.0272    Y=              7.5191    Z=              0.1424  Tot=              8.5309
 Quadrupole moment (field-independent basis, Debye-Ang):
   XX=            -98.1863   YY=            -78.1851   ZZ=            -84.9124
   XY=             12.2256   XZ=              4.0298   YZ=             -2.2422
 Traceless Quadrupole moment (field-independent basis, Debye-Ang):
   XX=            -11.0917   YY=              8.9095   ZZ=              2.1822
   XY=             12.2256   XZ=              4.0298   YZ=             -2.2422
 Octapole moment (field-independent basis, Debye-Ang**2):
  XXX=            110.4701  YYY=             64.2448  ZZZ=              1.2824  XYY=            -34.6275
  XXY=             31.8949  XXZ=             -4.8620  XZZ=              0.5711  YZZ=             -1.2685
  YYZ=              4.6533  XYZ=             -5.1953
 Hexadecapole moment (field-independent basis, Debye-Ang**3):
 XXXX=          -3064.2146 YYYY=          -1292.6973 ZZZZ=           -143.1262 XXXY=             31.9338
 XXXZ=             43.9370 YYYX=             87.3635 YYYZ=            -19.6720 ZZZX=             -3.7005
 ZZZY=              2.3101 XXYY=           -690.7292 XXZZ=           -479.6605 YYZZ=           -245.0537
 XXYZ=            -10.0746 YYXZ=              9.5717 ZZXY=             -0.1468
 N-N= 8.994347622185D+02 E-N=-3.274839630505D+03  KE= 6.306625780654D+02
 Leave Link  601 at Fri Jan 23 15:28:18 2026, MaxMem=  2147483648 cpu:               0.7 elap:               0.1
 (Enter /data/home/wyx/g16/l9999.exe)
 Electronic transition elements 
                 1             2             3             4             5 
      1  -0.633210D+03 -0.633177D+03 -0.633171D+03 -0.633140D+03 -0.633124D+03
      2   0.143882D+01 -0.113641D-01 -0.835953D-01 -0.274179D+00  0.440187D+00
      3   0.364805D+00 -0.376412D-01  0.577188D-01  0.125573D+01 -0.148481D+01
      4   0.117589D+00  0.344546D-01 -0.337463D-01 -0.101037D+00  0.835391D-01
      5  -0.153441D+00  0.923549D-03  0.117027D-01  0.418282D-01 -0.833887D-01
      6  -0.424602D-01  0.572446D-02 -0.697977D-02 -0.218607D+00  0.287615D+00
      7  -0.119877D-01 -0.189218D-02  0.157595D-02  0.141416D-01 -0.167468D-01
      8  -0.119806D+00  0.783275D+00  0.521738D+00 -0.228856D-01  0.118038D+00
      9  -0.334985D-01  0.153934D+00 -0.848424D+00  0.354746D-01 -0.501675D-01
     10   0.147605D+01 -0.307037D-01 -0.151736D+00 -0.100384D-01  0.282015D+00
     11  -0.170871D+00  0.315069D-01  0.202015D-02  0.100550D+01 -0.680826D+00
     12   0.242932D+00 -0.129969D-01 -0.365057D-01 -0.746982D-01  0.328413D+00
     13  -0.137192D-01 -0.127966D-01  0.290605D-01 -0.118738D-01  0.437421D-01
     14   0.428761D+00 -0.100223D-01 -0.598112D-01  0.411314D+00 -0.149192D+00
     15  -0.476070D-01 -0.109656D-01  0.512052D-01  0.468394D-01 -0.205104D-01
     16   0.190408D-01  0.697471D-01  0.217644D-01  0.505352D-01  0.819674D-02
                 6 
      1  -0.633109D+03
      2   0.584371D-01
      3  -0.197026D+00
      4  -0.503513D-01
      5  -0.127704D-01
      6   0.404863D-01
      7   0.306989D-01
      8  -0.206242D-01
      9  -0.997843D-03
     10  -0.280427D-01
     11   0.843842D-01
     12   0.121440D+00
     13  -0.110969D+00
     14  -0.172935D-01
     15   0.314779D-01
     16  -0.973144D-01
 1\1\GINC-CN012\SP\RCAM-B3LYP TD-FC\TZVP\C11H15N1O2\WYX\23-Jan-2026\0\\
 #p CAM-B3LYP TZVP em=gd3bj td(nstates=6,root=1) scrf=(Solvent=TetraHyd
 roFuran)\\Title Card Required\\0,1\O,0,2.839421,-1.57264,0.048152\O,0,
 -3.428654,-1.646247,-0.121592\N,0,-0.662201,1.517198,-0.202023\H,0,-0.
 973828,2.477465,-0.251968\C,0,-1.247513,-0.762104,-0.203101\C,0,0.6809
 86,1.331579,-0.031141\C,0,-1.636011,0.575649,-0.243178\C,0,-2.213017,-
 1.844705,-0.175252\C,0,0.196604,-1.085194,-0.204921\H,0,0.412075,-1.89
 4741,0.500373\H,0,0.470926,-1.553803,-1.167351\C,0,1.147796,0.025634,0
 .036418\C,0,2.517546,-0.401163,0.275026\C,0,-3.024467,1.103643,-0.3444
 09\H,0,-3.022323,2.186079,-0.465058\H,0,-3.552581,0.662731,-1.184804\H
 ,0,-3.604974,0.858342,0.541022\C,0,-1.711074,-3.265541,-0.185786\H,0,-
 2.523113,-3.926939,-0.468945\H,0,-0.875891,-3.422496,-0.862191\H,0,-1.
 376159,-3.556394,0.809912\C,0,3.563273,0.529112,0.840553\H,0,4.069925,
 1.069899,0.038479\H,0,3.157905,1.257314,1.538206\H,0,4.306638,-0.08140
 6,1.348611\C,0,1.469123,2.597785,0.02607\H,0,1.698388,2.895827,1.04969
 4\H,0,2.408054,2.509173,-0.51047\H,0,0.913146,3.415943,-0.430325\\Vers
 ion=ES64L-G16RevA.03\State=1-A\HF=-633.3219628\RMSD=5.169e-09\PG=C01 [
 X(C11H15N1O2)]\\@


 IF NO USE IS MADE OF THE LABOR OF PAST AGES,
 THE WORLD MUST REMAIN ALWAYS IN THE INFANCY OF KNOWLEDGE.

                          -- CICERO
 Job cpu time:       0 days  0 hours 49 minutes  4.3 seconds.
 Elapsed time:       0 days  0 hours  3 minutes  5.4 seconds.
 File lengths (MBytes):  RWF=    830 Int=      0 D2E=      0 Chk=     34 Scr=      1
 Normal termination of Gaussian 16 at Fri Jan 23 15:28:20 2026.
