 Entering Gaussian System, Link 0=g16
 Input=DDL-LR-14.gjf
 Output=DDL-LR-14.log
 Initial command:
 /data/home/wyx/g16/l1.exe "/scr/tmp/wyx/13106/Gau-1968070.inp" -scrdir="/scr/tmp/wyx/13106/"
 Entering Link 1 = /data/home/wyx/g16/l1.exe PID=   1968071.
  
 Copyright (c) 1988,1990,1992,1993,1995,1998,2003,2009,2016,
            Gaussian, Inc.  All Rights Reserved.
  
 This is part of the Gaussian(R) 16 program.  It is based on
 the Gaussian(R) 09 system (copyright 2009, Gaussian, Inc.),
 the Gaussian(R) 03 system (copyright 2003, Gaussian, Inc.),
 the Gaussian(R) 98 system (copyright 1998, Gaussian, Inc.),
 the Gaussian(R) 94 system (copyright 1995, Gaussian, Inc.),
 the Gaussian 92(TM) system (copyright 1992, Gaussian, Inc.),
 the Gaussian 90(TM) system (copyright 1990, Gaussian, Inc.),
 the Gaussian 88(TM) system (copyright 1988, Gaussian, Inc.),
 the Gaussian 86(TM) system (copyright 1986, Carnegie Mellon
 University), and the Gaussian 82(TM) system (copyright 1983,
 Carnegie Mellon University). Gaussian is a federally registered
 trademark of Gaussian, Inc.
  
 This software contains proprietary and confidential information,
 including trade secrets, belonging to Gaussian, Inc.
  
 This software is provided under written license and may be
 used, copied, transmitted, or stored only in accord with that
 written license.
  
 The following legend is applicable only to US Government
 contracts under FAR:
  
                    RESTRICTED RIGHTS LEGEND
  
 Use, reproduction and disclosure by the US Government is
 subject to restrictions as set forth in subparagraphs (a)
 and (c) of the Commercial Computer Software - Restricted
 Rights clause in FAR 52.227-19.
  
 Gaussian, Inc.
 340 Quinnipiac St., Bldg. 40, Wallingford CT 06492
  
  
 ---------------------------------------------------------------
 Warning -- This program may not be used in any manner that
 competes with the business of Gaussian, Inc. or will provide
 assistance to any competitor of Gaussian, Inc.  The licensee
 of this program is prohibited from giving any competitor of
 Gaussian, Inc. access to this program.  By using this program,
 the user acknowledges that Gaussian, Inc. is engaged in the
 business of creating and licensing software in the field of
 computational chemistry and represents and warrants to the
 licensee that it is not a competitor of Gaussian, Inc. and that
 it will not use this program in any manner prohibited above.
 ---------------------------------------------------------------
  

 Cite this work as:
 Gaussian 16, Revision A.03,
 M. J. Frisch, G. W. Trucks, H. B. Schlegel, G. E. Scuseria, 
 M. A. Robb, J. R. Cheeseman, G. Scalmani, V. Barone, 
 G. A. Petersson, H. Nakatsuji, X. Li, M. Caricato, A. V. Marenich, 
 J. Bloino, B. G. Janesko, R. Gomperts, B. Mennucci, H. P. Hratchian, 
 J. V. Ortiz, A. F. Izmaylov, J. L. Sonnenberg, D. Williams-Young, 
 F. Ding, F. Lipparini, F. Egidi, J. Goings, B. Peng, A. Petrone, 
 T. Henderson, D. Ranasinghe, V. G. Zakrzewski, J. Gao, N. Rega, 
 G. Zheng, W. Liang, M. Hada, M. Ehara, K. Toyota, R. Fukuda, 
 J. Hasegawa, M. Ishida, T. Nakajima, Y. Honda, O. Kitao, H. Nakai, 
 T. Vreven, K. Throssell, J. A. Montgomery, Jr., J. E. Peralta, 
 F. Ogliaro, M. J. Bearpark, J. J. Heyd, E. N. Brothers, K. N. Kudin, 
 V. N. Staroverov, T. A. Keith, R. Kobayashi, J. Normand, 
 K. Raghavachari, A. P. Rendell, J. C. Burant, S. S. Iyengar, 
 J. Tomasi, M. Cossi, J. M. Millam, M. Klene, C. Adamo, R. Cammi, 
 J. W. Ochterski, R. L. Martin, K. Morokuma, O. Farkas, 
 J. B. Foresman, and D. J. Fox, Gaussian, Inc., Wallingford CT, 2016.
 
 ******************************************
 Gaussian 16:  ES64L-G16RevA.03 25-Dec-2016
                23-Jan-2026 
 ******************************************
 %nprocshared=16
 Will use up to   16 processors via shared memory.
 %mem=16GB
 %chk=DDL-LR-14.chk
 ----------------------------------------------------------------------
 #p CAM-B3LYP TZVP em=gd3bj td(nstates=6,root=1) scrf=(Solvent=TetraHyd
 roFuran)
 ----------------------------------------------------------------------
 1/38=1,172=1/1;
 2/12=2,17=6,18=5,40=1/2;
 3/5=19,7=101,11=9,25=1,30=1,70=2201,72=20,74=-40,124=41/1,2,3,8;
 4//1;
 5/5=2,38=5,53=20/2;
 8/6=1,10=1,107=1,108=6/1;
 9/8=1,41=6,42=1,70=2/14;
 6/7=2,8=2,9=2,10=2/1;
 99/5=1,9=1/99;
 Leave Link    1 at Fri Jan 23 16:20:49 2026, MaxMem=  2147483648 cpu:               0.4 elap:               0.1
 (Enter /data/home/wyx/g16/l101.exe)
 -------------------
 Title Card Required
 -------------------
 Symbolic Z-matrix:
 Charge =  0 Multiplicity = 1
 O                     2.83533  -1.56473   0.15106 
 O                    -3.41938  -1.62113   0.07481 
 N                    -0.63502   1.51042  -0.36491 
 H                    -0.94398   2.46774  -0.4191 
 C                    -1.23758  -0.75755  -0.22337 
 C                     0.70113   1.29946  -0.10566 
 C                    -1.61132   0.54665  -0.29243 
 C                    -2.22378  -1.82841  -0.10016 
 C                     0.21974  -1.11176  -0.35379 
 H                     0.4678   -1.95636   0.28668 
 H                     0.43805  -1.46812  -1.37009 
 C                     1.15141   0.02257  -0.01363 
 C                     2.51266  -0.39377   0.32554 
 C                    -3.00216   1.08807  -0.29779 
 H                    -3.00483   2.14175  -0.57413 
 H                    -3.63638   0.53749  -0.9847 
 H                    -3.4572    0.9886    0.68591 
 C                    -1.73014  -3.2492   -0.1904 
 H                    -2.57963  -3.92019  -0.26935 
 H                    -1.06745  -3.39757  -1.04117 
 H                    -1.16258  -3.51082   0.70315 
 C                     3.53192   0.54346   0.92702 
 H                     4.04674   1.09901   0.14119 
 H                     3.09784   1.25847   1.62104 
 H                     4.27186  -0.06263   1.44439 
 C                     1.4681    2.57724   0.03391 
 H                     1.52054   2.89258   1.07648 
 H                     2.47772   2.49767  -0.34867 
 H                     0.97058   3.37105  -0.52186 
 
 ITRead=  0  0  0  0  0  0  0  0  0  0  0  0  0  0  0  0  0  0  0  0
 ITRead=  0  0  0  0  0  0  0  0  0
 MicOpt= -1 -1 -1 -1 -1 -1 -1 -1 -1 -1 -1 -1 -1 -1 -1 -1 -1 -1 -1 -1
 MicOpt= -1 -1 -1 -1 -1 -1 -1 -1 -1
 NAtoms=     29 NQM=       29 NQMF=       0 NMMI=      0 NMMIF=      0
                NMic=       0 NMicF=      0.
                    Isotopes and Nuclear Properties:
 (Nuclear quadrupole moments (NQMom) in fm**2, nuclear magnetic moments (NMagM)
  in nuclear magnetons)

  Atom         1           2           3           4           5           6           7           8           9          10
 IAtWgt=          16          16          14           1          12          12          12          12          12           1
 AtmWgt=  15.9949146  15.9949146  14.0030740   1.0078250  12.0000000  12.0000000  12.0000000  12.0000000  12.0000000   1.0078250
 NucSpn=           0           0           2           1           0           0           0           0           0           1
 AtZEff=  -0.0000000  -0.0000000  -0.0000000  -0.0000000  -0.0000000  -0.0000000  -0.0000000  -0.0000000  -0.0000000  -0.0000000
 NQMom=    0.0000000   0.0000000   2.0440000   0.0000000   0.0000000   0.0000000   0.0000000   0.0000000   0.0000000   0.0000000
 NMagM=    0.0000000   0.0000000   0.4037610   2.7928460   0.0000000   0.0000000   0.0000000   0.0000000   0.0000000   2.7928460
 AtZNuc=   8.0000000   8.0000000   7.0000000   1.0000000   6.0000000   6.0000000   6.0000000   6.0000000   6.0000000   1.0000000

  Atom        11          12          13          14          15          16          17          18          19          20
 IAtWgt=           1          12          12          12           1           1           1          12           1           1
 AtmWgt=   1.0078250  12.0000000  12.0000000  12.0000000   1.0078250   1.0078250   1.0078250  12.0000000   1.0078250   1.0078250
 NucSpn=           1           0           0           0           1           1           1           0           1           1
 AtZEff=  -0.0000000  -0.0000000  -0.0000000  -0.0000000  -0.0000000  -0.0000000  -0.0000000  -0.0000000  -0.0000000  -0.0000000
 NQMom=    0.0000000   0.0000000   0.0000000   0.0000000   0.0000000   0.0000000   0.0000000   0.0000000   0.0000000   0.0000000
 NMagM=    2.7928460   0.0000000   0.0000000   0.0000000   2.7928460   2.7928460   2.7928460   0.0000000   2.7928460   2.7928460
 AtZNuc=   1.0000000   6.0000000   6.0000000   6.0000000   1.0000000   1.0000000   1.0000000   6.0000000   1.0000000   1.0000000

  Atom        21          22          23          24          25          26          27          28          29
 IAtWgt=           1          12           1           1           1          12           1           1           1
 AtmWgt=   1.0078250  12.0000000   1.0078250   1.0078250   1.0078250  12.0000000   1.0078250   1.0078250   1.0078250
 NucSpn=           1           0           1           1           1           0           1           1           1
 AtZEff=  -0.0000000  -0.0000000  -0.0000000  -0.0000000  -0.0000000  -0.0000000  -0.0000000  -0.0000000  -0.0000000
 NQMom=    0.0000000   0.0000000   0.0000000   0.0000000   0.0000000   0.0000000   0.0000000   0.0000000   0.0000000
 NMagM=    2.7928460   0.0000000   2.7928460   2.7928460   2.7928460   0.0000000   2.7928460   2.7928460   2.7928460
 AtZNuc=   1.0000000   6.0000000   1.0000000   1.0000000   1.0000000   6.0000000   1.0000000   1.0000000   1.0000000
 Leave Link  101 at Fri Jan 23 16:20:50 2026, MaxMem=  2147483648 cpu:               0.8 elap:               0.1
 (Enter /data/home/wyx/g16/l202.exe)
                          Input orientation:                          
 ---------------------------------------------------------------------
 Center     Atomic      Atomic             Coordinates (Angstroms)
 Number     Number       Type             X           Y           Z
 ---------------------------------------------------------------------
      1          8           0        2.835325   -1.564727    0.151062
      2          8           0       -3.419382   -1.621129    0.074814
      3          7           0       -0.635023    1.510422   -0.364906
      4          1           0       -0.943978    2.467738   -0.419095
      5          6           0       -1.237575   -0.757550   -0.223371
      6          6           0        0.701128    1.299455   -0.105661
      7          6           0       -1.611317    0.546648   -0.292429
      8          6           0       -2.223780   -1.828409   -0.100160
      9          6           0        0.219739   -1.111762   -0.353790
     10          1           0        0.467803   -1.956362    0.286680
     11          1           0        0.438047   -1.468115   -1.370088
     12          6           0        1.151411    0.022570   -0.013629
     13          6           0        2.512662   -0.393772    0.325538
     14          6           0       -3.002158    1.088073   -0.297785
     15          1           0       -3.004832    2.141752   -0.574133
     16          1           0       -3.636378    0.537489   -0.984702
     17          1           0       -3.457201    0.988603    0.685913
     18          6           0       -1.730135   -3.249197   -0.190404
     19          1           0       -2.579625   -3.920189   -0.269346
     20          1           0       -1.067446   -3.397565   -1.041172
     21          1           0       -1.162580   -3.510819    0.703151
     22          6           0        3.531918    0.543463    0.927016
     23          1           0        4.046737    1.099008    0.141193
     24          1           0        3.097844    1.258470    1.621044
     25          1           0        4.271857   -0.062626    1.444390
     26          6           0        1.468101    2.577239    0.033913
     27          1           0        1.520537    2.892581    1.076482
     28          1           0        2.477723    2.497665   -0.348671
     29          1           0        0.970578    3.371046   -0.521857
 ---------------------------------------------------------------------
                    Distance matrix (angstroms):
                    1          2          3          4          5
     1  O    0.000000
     2  O    6.255426   0.000000
     3  N    4.665413   4.213386   0.000000
     4  H    5.555986   4.805248   1.007394   0.000000
     5  C    4.168963   2.365368   2.350914   3.244532   0.000000
     6  C    3.581095   5.053809   1.377322   2.041935   2.829080
     7  C    4.942389   2.846616   1.373777   2.037639   1.358449
     8  C    5.072197   1.225987   3.707025   4.494051   1.461000
     9  C    2.702100   3.699508   2.758005   3.764482   1.505403
    10  H    2.403525   3.907362   3.695860   4.697223   2.146070
    11  H    2.840805   4.122004   3.321679   4.278472   2.151179
    12  C    2.319957   4.858160   2.351265   3.245598   2.521871
    13  C    1.227065   6.062872   3.743072   4.548745   3.807613
    14  C    6.427676   2.766348   2.405455   2.480785   2.554528
    15  H    6.954950   3.840867   2.461371   2.092229   3.413529
    16  H    6.898711   2.414393   3.215412   3.360772   2.830372
    17  H    6.811860   2.680592   3.056338   3.118521   2.966915
    18  C    4.878264   2.361038   4.887095   5.775265   2.540080
    19  H    5.920019   2.471703   5.769068   6.595709   3.435913
    20  H    4.473515   3.151627   4.973194   5.899492   2.769011
    21  H    4.480549   3.009799   5.160613   6.086901   2.905952
    22  C    2.351980   7.330230   4.468497   5.054552   5.075834
    23  H    2.926278   7.946476   4.726973   5.205245   5.612813
    24  H    3.193776   7.290895   4.235773   4.686237   5.124652
    25  H    2.447985   7.966168   5.461273   6.089356   5.798119
    26  C    4.363360   6.443249   2.391712   2.456691   4.302057
    27  H    4.738424   6.766071   2.938435   2.913945   4.756076
    28  H    4.108606   7.205529   3.265593   3.422556   4.941211
    29  H    5.319018   6.674547   2.462623   2.119446   4.691518
                    6          7          8          9         10
     6  C    0.000000
     7  C    2.439058   0.000000
     8  C    4.282365   2.460279   0.000000
     9  C    2.471289   2.471205   2.559042   0.000000
    10  H    3.287661   3.305021   2.722248   1.088617   0.000000
    11  H    3.054084   3.069285   2.971170   1.098866   1.727469
    12  C    1.357078   2.825784   3.850393   1.506795   2.115107
    13  C    2.516864   4.274749   4.967221   2.496896   2.573839
    14  C    3.714286   1.492517   3.025028   3.901670   4.653043
    15  H    3.829239   2.136726   4.073926   4.586040   5.440104
    16  H    4.490798   2.140140   2.894015   4.241193   4.967898
    17  H    4.244398   2.135361   3.174082   4.360321   4.923196
    18  C    5.158339   3.799074   1.506807   2.897815   2.594217
    19  H    6.167237   4.570644   2.128566   3.966211   3.667778
    20  H    5.105392   4.051324   2.164454   2.711869   2.489427
    21  H    5.221716   4.201855   2.145217   2.963681   2.290837
    22  C    3.106657   5.285823   6.309432   3.918005   4.005990
    23  H    3.360687   5.701465   6.924406   4.447294   4.707995
    24  H    2.954224   5.132667   6.388352   4.219177   4.362658
    25  H    4.124079   6.164373   6.906296   4.555634   4.404243
    26  C    1.496817   3.703055   5.749582   3.913751   4.649519
    27  H    2.146379   4.145579   6.139393   4.446630   5.024369
    28  H    2.156630   4.530991   6.393810   4.257521   4.927657
    29  H    2.130097   3.833542   6.116869   4.548359   5.411820
                   11         12         13         14         15
    11  H    0.000000
    12  C    2.137992   0.000000
    13  C    2.886761   1.463345   0.000000
    14  C    4.418025   4.297462   5.744357   0.000000
    15  H    5.051544   4.698878   6.138488   1.089319   0.000000
    16  H    4.557621   4.912336   6.355680   1.085004   1.772308
    17  H    5.043368   4.760450   6.138411   1.088403   1.766948
    18  C    3.043833   4.363372   5.140134   4.521226   5.552876
    19  H    4.041119   5.434277   6.222611   5.026135   6.084474
    20  H    2.469306   4.204342   4.869070   4.941324   5.886903
    21  H    3.321591   4.284059   4.833837   5.053289   6.080864
    22  C    4.346858   2.612079   1.509658   6.670149   6.894714
    23  H    4.679395   3.092831   2.148432   7.062559   7.164051
    24  H    4.843104   2.826341   2.179605   6.396950   6.545353
    25  H    4.959313   3.445325   2.110984   7.567733   7.866633
    26  C    4.404216   2.574662   3.162761   4.723437   4.535030
    27  H    5.115971   3.092177   3.514021   5.059608   4.875165
    28  H    4.575039   2.827977   2.969206   5.658501   5.498720
    29  H    4.941717   3.391650   4.155714   4.587462   4.161464
                   16         17         18         19         20
    16  H    0.000000
    17  H    1.739702   0.000000
    18  C    4.313196   4.659360   0.000000
    19  H    4.636740   5.077292   1.085401   0.000000
    20  H    4.699707   5.285094   1.088566   1.776383   0.000000
    21  H    5.035605   5.050780   1.090415   1.766734   1.750583
    22  C    7.418839   7.007429   6.581953   7.662012   6.368643
    23  H    7.785448   7.524493   7.238031   8.322833   6.911731
    24  H    7.256685   6.626908   6.849072   7.913643   6.790854
    25  H    8.294625   7.837009   6.989327   8.047390   6.768160
    26  C    5.590515   5.216078   6.650292   7.661111   6.578988
    27  H    6.032306   5.343740   7.063519   8.064516   7.123767
    28  H    6.452058   6.210552   7.124433   8.171408   6.913864
    29  H    5.428380   5.171070   7.157606   8.113557   7.087829
                   21         22         23         24         25
    21  H    0.000000
    22  C    6.206902   0.000000
    23  H    6.978774   1.091415   0.000000
    24  H    6.460639   1.086890   1.765159   0.000000
    25  H    6.478625   1.087442   1.760226   1.776178   0.000000
    26  C    6.665794   3.032032   2.974229   2.629486   4.101144
    27  H    6.952843   3.096183   3.236256   2.335544   4.054426
    28  H    7.103521   2.560783   2.158243   2.408305   3.604036
    29  H    7.308288   4.081044   3.881307   3.685141   5.153123
                   26         27         28         29
    26  C    0.000000
    27  H    1.090477   0.000000
    28  H    1.082608   1.761597   0.000000
    29  H    1.089284   1.756722   1.750507   0.000000
 Stoichiometry    C11H15NO2
 Framework group  C1[X(C11H15NO2)]
 Deg. of freedom    81
 Full point group                 C1      NOp   1
 Largest Abelian subgroup         C1      NOp   1
 Largest concise Abelian subgroup C1      NOp   1
                         Standard orientation:                         
 ---------------------------------------------------------------------
 Center     Atomic      Atomic             Coordinates (Angstroms)
 Number     Number       Type             X           Y           Z
 ---------------------------------------------------------------------
      1          8           0        2.288081   -2.277711   -0.196038
      2          8           0       -3.594113   -0.246142    0.438690
      3          7           0        0.025082    1.801877   -0.239298
      4          1           0        0.053309    2.808866   -0.234841
      5          6           0       -1.289834   -0.140792   -0.084918
      6          6           0        1.230518    1.143187   -0.138969
      7          6           0       -1.206753    1.215104   -0.079479
      8          6           0       -2.562034   -0.828142    0.123833
      9          6           0       -0.057878   -0.950820   -0.388855
     10          1           0       -0.047014   -1.867236    0.198639
     11          1           0       -0.074361   -1.296806   -1.431702
     12          6           0        1.230582   -0.213859   -0.129642
     13          6           0        2.398175   -1.079051    0.042250
     14          6           0       -2.326795    2.187495    0.086562
     15          1           0       -2.001343    3.196868   -0.162161
     16          1           0       -3.174278    1.922136   -0.536809
     17          1           0       -2.688890    2.185215    1.112964
     18          6           0       -2.587962   -2.323920   -0.056288
     19          1           0       -3.617350   -2.668087   -0.054220
     20          1           0       -2.101880   -2.632043   -0.980279
     21          1           0       -2.056320   -2.813370    0.760291
     22          6           0        3.728052   -0.572643    0.546280
     23          1           0        4.319516   -0.173091   -0.279381
     24          1           0        3.631558    0.202283    1.302261
     25          1           0        4.267644   -1.420660    0.961295
     26          6           0        2.393291    2.082156   -0.056773
     27          1           0        2.652015    2.297908    0.980364
     28          1           0        3.273754    1.694851   -0.553581
     29          1           0        2.140148    3.028563   -0.532979
 ---------------------------------------------------------------------
 Rotational constants (GHZ):           1.0789286           0.4907179           0.3467318
 Leave Link  202 at Fri Jan 23 16:20:50 2026, MaxMem=  2147483648 cpu:               0.0 elap:               0.0
 (Enter /data/home/wyx/g16/l301.exe)
 Standard basis: TZVP (5D, 7F)
 Ernie: Thresh=  0.10000D-02 Tol=  0.10000D-05 Strict=F.
 There are   370 symmetry adapted cartesian basis functions of A   symmetry.
 There are   356 symmetry adapted basis functions of A   symmetry.
   356 basis functions,   610 primitive gaussians,   370 cartesian basis functions
    52 alpha electrons       52 beta electrons
       nuclear repulsion energy       900.8138784471 Hartrees.
 IExCor=20419 DFT=T Ex+Corr=CAM-B3LYP ExCW=0 ScaHFX=  1.000000
 ScaDFX=  1.000000  1.000000  1.000000  0.810000 ScalE2=  1.000000  1.000000
 IRadAn=      5 IRanWt=     -1 IRanGd=            0 ICorTp=0 IEmpDi=141
 HFx  wShort=  0.000000 wLong=  0.330000 cFull=  0.190000 cShort=  0.000000 cLong=  0.460000
 DFx  wShort=  0.000000 wLong=  0.330000 cFull=  0.190000 cShort=  0.000000 cLong=  0.460000
 NAtoms=   29 NActive=   29 NUniq=   29 SFac= 1.00D+00 NAtFMM=   60 NAOKFM=F Big=F
 Integral buffers will be    131072 words long.
 Raffenetti 1 integral format.
 Two-electron integral symmetry is turned on.
 R6Disp:  Grimme-D3(BJ) Dispersion energy=       -0.0262051921 Hartrees.
 Nuclear repulsion after empirical dispersion term =      900.7876732550 Hartrees.
 ------------------------------------------------------------------------------
 Polarizable Continuum Model (PCM)
 =================================
 Model                : PCM.
 Atomic radii         : UFF (Universal Force Field).
 Polarization charges : Total charges.
 Charge compensation  : None.
 Solution method      : On-the-fly selection.
 Cavity type          : Scaled VdW (van der Waals Surface) (Alpha=1.100).
 Cavity algorithm     : GePol (No added spheres)
                        Default sphere list used, NSphG=   29.
                        Lebedev-Laikov grids with approx.  5.0 points / Ang**2.
                        Smoothing algorithm: York/Karplus (Gamma=1.0000).
                        Polarization charges: spherical gaussians, with
                                              point-specific exponents (IZeta= 3).
                        Self-potential: point-specific (ISelfS= 7).
                        Self-field    : sphere-specific E.n sum rule (ISelfD= 2).
 Solvent              : TetraHydroFuran, Eps=   7.425700 Eps(inf)=   1.974025
 ------------------------------------------------------------------------------
 GePol: Number of generator spheres                  =      29
 GePol: Total number of spheres                      =      29
 GePol: Number of exposed spheres                    =      29 (100.00%)
 GePol: Number of points                             =    2103
 GePol: Average weight of points                     =       0.13
 GePol: Minimum weight of points                     =   0.18D-10
 GePol: Maximum weight of points                     =    0.20577
 GePol: Number of points with low weight             =     164
 GePol: Fraction of low-weight points (<1% of avg)   =       7.80%
 GePol: Cavity surface area                          =    268.633 Ang**2
 GePol: Cavity volume                                =    286.670 Ang**3
 Leave Link  301 at Fri Jan 23 16:20:50 2026, MaxMem=  2147483648 cpu:               0.6 elap:               0.0
 (Enter /data/home/wyx/g16/l302.exe)
 NPDir=0 NMtPBC=     1 NCelOv=     1 NCel=       1 NClECP=     1 NCelD=      1
         NCelK=      1 NCelE2=     1 NClLst=     1 CellRange=     0.0.
 One-electron integrals computed using PRISM.
 One-electron integral symmetry used in STVInt
 NBasis=   356 RedAO= T EigKep=  4.72D-05  NBF=   356
 NBsUse=   356 1.00D-06 EigRej= -1.00D+00 NBFU=   356
 Precomputing XC quadrature grid using
 IXCGrd= 4 IRadAn=           5 IRanWt=          -1 IRanGd=           0 AccXCQ= 0.00D+00.
 Generated NRdTot=       0 NPtTot=           0 NUsed=           0 NTot=          32
 NSgBfM=   366   366   366   366   366 MxSgAt=    29 MxSgA2=    29.
 Leave Link  302 at Fri Jan 23 16:20:50 2026, MaxMem=  2147483648 cpu:               3.1 elap:               0.2
 (Enter /data/home/wyx/g16/l303.exe)
 DipDrv:  MaxL=1.
 Leave Link  303 at Fri Jan 23 16:20:51 2026, MaxMem=  2147483648 cpu:               0.5 elap:               0.0
 (Enter /data/home/wyx/g16/l308.exe)
 Leave Link  308 at Fri Jan 23 16:20:51 2026, MaxMem=  2147483648 cpu:               0.7 elap:               0.1
 (Enter /data/home/wyx/g16/l401.exe)
 ExpMin= 9.52D-02 ExpMax= 2.70D+04 ExpMxC= 9.22D+02 IAcc=3 IRadAn=         5 AccDes= 0.00D+00
 Harris functional with IExCor=20419 and IRadAn=       5 diagonalized for initial guess.
 HarFok:  IExCor=20419 AccDes= 0.00D+00 IRadAn=         5 IDoV= 1 UseB2=F ITyADJ=14
 ICtDFT=  3500011 ScaDFX=  1.000000  1.000000  1.000000  1.000000
 FoFCou: FMM=F IPFlag=           0 FMFlag=      100000 FMFlg1=           0
         NFxFlg=           0 DoJE=T BraDBF=F KetDBF=T FulRan=T
         wScrn=  0.000000 ICntrl=       500 IOpCl=  0 I1Cent=   200000004 NGrid=           0
         NMat0=    1 NMatS0=      1 NMatT0=    0 NMatD0=    1 NMtDS0=    0 NMtDT0=    0
 Petite list used in FoFCou.
 Harris En= -608.712677480614    
 JPrj=0 DoOrth=F DoCkMO=F.
 Leave Link  401 at Fri Jan 23 16:20:52 2026, MaxMem=  2147483648 cpu:              11.8 elap:               0.8
 (Enter /data/home/wyx/g16/l502.exe)
 Integral symmetry usage will be decided dynamically.
 Closed shell SCF:
 Using DIIS extrapolation, IDIIS=  1040.
 NGot=  2147483648 LenX=  2147200095 LenY=  2147062754
 Requested convergence on RMS density matrix=1.00D-08 within 128 cycles.
 Requested convergence on MAX density matrix=1.00D-06.
 Requested convergence on             energy=1.00D-06.
 No special actions if energy rises.
 Fock matrices will be formed incrementally for  20 cycles.

 Cycle   1  Pass 1  IDiag  1:
 FoFJK:  IHMeth= 1 ICntrl=       0 DoSepK=T KAlg= 0 I1Cent=           0 FoldK=F
 IRaf=         1 NMat=       1 IRICut=       1 DoRegI=T DoRafI=F ISym2E= 0 IDoP0=0 IntGTp=1.
 FoFCou: FMM=F IPFlag=           0 FMFlag=      100000 FMFlg1=           0
         NFxFlg=           0 DoJE=T BraDBF=F KetDBF=F FulRan=T
         wScrn=  0.000000 ICntrl=       500 IOpCl=  0 I1Cent=           0 NGrid=           0
         NMat0=    1 NMatS0=      1 NMatT0=    0 NMatD0=    1 NMtDS0=    0 NMtDT0=    0
 Symmetry not used in FoFCou.
 Inv3:  Mode=1 IEnd=    13267827.
 Iteration    1 A*A^-1 deviation from unit magnitude is 2.89D-15 for    159.
 Iteration    1 A*A^-1 deviation from orthogonality  is 2.43D-15 for   1787    625.
 Iteration    1 A^-1*A deviation from unit magnitude is 2.89D-15 for   1030.
 Iteration    1 A^-1*A deviation from orthogonality  is 2.49D-15 for   1410    970.
 E= -633.130365509304    
 DIIS: error= 4.14D-02 at cycle   1 NSaved=   1.
 NSaved= 1 IEnMin= 1 EnMin= -633.130365509304     IErMin= 1 ErrMin= 4.14D-02
 ErrMax= 4.14D-02  0.00D+00 EMaxC= 1.00D-01 BMatC= 1.09D+00 BMatP= 1.09D+00
 IDIUse=3 WtCom= 5.86D-01 WtEn= 4.14D-01
 Coeff-Com:  0.100D+01
 Coeff-En:   0.100D+01
 Coeff:      0.100D+01
 Gap=     0.230 Goal=   None    Shift=    0.000
 GapD=    0.230 DampG=1.000 DampE=0.500 DampFc=0.5000 IDamp=-1.
 Damping current iteration by 5.00D-01
 RMSDP=4.04D-03 MaxDP=1.83D-01              OVMax= 1.47D-01

 Cycle   2  Pass 1  IDiag  1:
 RMSU=  1.80D-03    CP:  9.32D-01
 E= -633.226180602513     Delta-E=       -0.095815093209 Rises=F Damp=T
 DIIS: error= 1.89D-02 at cycle   2 NSaved=   2.
 NSaved= 2 IEnMin= 2 EnMin= -633.226180602513     IErMin= 2 ErrMin= 1.89D-02
 ErrMax= 1.89D-02  0.00D+00 EMaxC= 1.00D-01 BMatC= 2.24D-01 BMatP= 1.09D+00
 IDIUse=3 WtCom= 8.11D-01 WtEn= 1.89D-01
 Coeff-Com: -0.592D+00 0.159D+01
 Coeff-En:   0.000D+00 0.100D+01
 Coeff:     -0.480D+00 0.148D+01
 Gap=     0.245 Goal=   None    Shift=    0.000
 RMSDP=1.52D-03 MaxDP=4.62D-02 DE=-9.58D-02 OVMax= 1.40D-01

 Cycle   3  Pass 1  IDiag  1:
 RMSU=  1.42D-03    CP:  9.06D-01  1.24D+00
 E= -633.274001605742     Delta-E=       -0.047821003229 Rises=F Damp=F
 DIIS: error= 1.08D-02 at cycle   3 NSaved=   3.
 NSaved= 3 IEnMin= 3 EnMin= -633.274001605742     IErMin= 3 ErrMin= 1.08D-02
 ErrMax= 1.08D-02  0.00D+00 EMaxC= 1.00D-01 BMatC= 6.52D-02 BMatP= 2.24D-01
 IDIUse=3 WtCom= 8.92D-01 WtEn= 1.08D-01
 Coeff-Com: -0.365D+00 0.801D+00 0.565D+00
 Coeff-En:   0.000D+00 0.000D+00 0.100D+01
 Coeff:     -0.326D+00 0.714D+00 0.612D+00
 Gap=     0.242 Goal=   None    Shift=    0.000
 RMSDP=1.31D-03 MaxDP=6.94D-02 DE=-4.78D-02 OVMax= 7.91D-02

 Cycle   4  Pass 1  IDiag  1:
 RMSU=  5.27D-04    CP:  8.61D-01  1.71D+00  5.62D-01
 E= -633.323714221965     Delta-E=       -0.049712616223 Rises=F Damp=F
 DIIS: error= 3.67D-03 at cycle   4 NSaved=   4.
 NSaved= 4 IEnMin= 4 EnMin= -633.323714221965     IErMin= 4 ErrMin= 3.67D-03
 ErrMax= 3.67D-03  0.00D+00 EMaxC= 1.00D-01 BMatC= 6.37D-03 BMatP= 6.52D-02
 IDIUse=3 WtCom= 9.63D-01 WtEn= 3.67D-02
 Coeff-Com: -0.168D+00 0.365D+00 0.353D+00 0.451D+00
 Coeff-En:   0.000D+00 0.000D+00 0.825D-03 0.999D+00
 Coeff:     -0.162D+00 0.351D+00 0.340D+00 0.471D+00
 Gap=     0.237 Goal=   None    Shift=    0.000
 RMSDP=3.06D-04 MaxDP=1.96D-02 DE=-4.97D-02 OVMax= 1.56D-02

 Cycle   5  Pass 1  IDiag  1:
 RMSU=  1.01D-04    CP:  8.70D-01  1.65D+00  6.85D-01  6.85D-01
 E= -633.328650151757     Delta-E=       -0.004935929792 Rises=F Damp=F
 DIIS: error= 4.20D-04 at cycle   5 NSaved=   5.
 NSaved= 5 IEnMin= 5 EnMin= -633.328650151757     IErMin= 5 ErrMin= 4.20D-04
 ErrMax= 4.20D-04  0.00D+00 EMaxC= 1.00D-01 BMatC= 6.35D-05 BMatP= 6.37D-03
 IDIUse=3 WtCom= 9.96D-01 WtEn= 4.20D-03
 Coeff-Com: -0.259D-01 0.552D-01 0.648D-01 0.140D+00 0.766D+00
 Coeff-En:   0.000D+00 0.000D+00 0.000D+00 0.000D+00 0.100D+01
 Coeff:     -0.258D-01 0.550D-01 0.645D-01 0.140D+00 0.767D+00
 Gap=     0.237 Goal=   None    Shift=    0.000
 RMSDP=1.10D-04 MaxDP=5.96D-03 DE=-4.94D-03 OVMax= 1.85D-03

 Cycle   6  Pass 1  IDiag  1:
 RMSU=  5.04D-05    CP:  8.66D-01  1.67D+00  6.93D-01  8.01D-01  1.15D+00
 E= -633.328688736797     Delta-E=       -0.000038585040 Rises=F Damp=F
 DIIS: error= 3.63D-04 at cycle   6 NSaved=   6.
 NSaved= 6 IEnMin= 6 EnMin= -633.328688736797     IErMin= 6 ErrMin= 3.63D-04
 ErrMax= 3.63D-04  0.00D+00 EMaxC= 1.00D-01 BMatC= 2.50D-05 BMatP= 6.35D-05
 IDIUse=3 WtCom= 9.96D-01 WtEn= 3.63D-03
 Coeff-Com:  0.174D-01-0.379D-01-0.293D-01-0.813D-02 0.452D+00 0.606D+00
 Coeff-En:   0.000D+00 0.000D+00 0.000D+00 0.000D+00 0.146D+00 0.854D+00
 Coeff:      0.173D-01-0.378D-01-0.292D-01-0.810D-02 0.451D+00 0.607D+00
 Gap=     0.238 Goal=   None    Shift=    0.000
 RMSDP=2.39D-05 MaxDP=9.62D-04 DE=-3.86D-05 OVMax= 2.72D-03

 Cycle   7  Pass 1  IDiag  1:
 RMSU=  1.78D-05    CP:  8.66D-01  1.68D+00  6.96D-01  8.00D-01  1.24D+00
                    CP:  7.92D-01
 E= -633.328711226804     Delta-E=       -0.000022490007 Rises=F Damp=F
 DIIS: error= 4.15D-05 at cycle   7 NSaved=   7.
 NSaved= 7 IEnMin= 7 EnMin= -633.328711226804     IErMin= 7 ErrMin= 4.15D-05
 ErrMax= 4.15D-05  0.00D+00 EMaxC= 1.00D-01 BMatC= 8.73D-07 BMatP= 2.50D-05
 IDIUse=1 WtCom= 1.00D+00 WtEn= 0.00D+00
 Coeff-Com:  0.421D-02-0.908D-02-0.781D-02-0.108D-01 0.808D-02 0.152D+00
 Coeff-Com:  0.863D+00
 Coeff:      0.421D-02-0.908D-02-0.781D-02-0.108D-01 0.808D-02 0.152D+00
 Coeff:      0.863D+00
 Gap=     0.238 Goal=   None    Shift=    0.000
 RMSDP=1.54D-05 MaxDP=8.33D-04 DE=-2.25D-05 OVMax= 5.73D-04

 Cycle   8  Pass 1  IDiag  1:
 RMSU=  4.62D-06    CP:  8.66D-01  1.68D+00  6.98D-01  8.16D-01  1.30D+00
                    CP:  9.24D-01  1.04D+00
 E= -633.328712499885     Delta-E=       -0.000001273081 Rises=F Damp=F
 DIIS: error= 2.30D-05 at cycle   8 NSaved=   8.
 NSaved= 8 IEnMin= 8 EnMin= -633.328712499885     IErMin= 8 ErrMin= 2.30D-05
 ErrMax= 2.30D-05  0.00D+00 EMaxC= 1.00D-01 BMatC= 1.14D-07 BMatP= 8.73D-07
 IDIUse=1 WtCom= 1.00D+00 WtEn= 0.00D+00
 Coeff-Com: -0.339D-03 0.802D-03 0.282D-03-0.430D-02-0.609D-01-0.775D-02
 Coeff-Com:  0.304D+00 0.768D+00
 Coeff:     -0.339D-03 0.802D-03 0.282D-03-0.430D-02-0.609D-01-0.775D-02
 Coeff:      0.304D+00 0.768D+00
 Gap=     0.238 Goal=   None    Shift=    0.000
 RMSDP=4.08D-06 MaxDP=2.32D-04 DE=-1.27D-06 OVMax= 3.76D-04

 Cycle   9  Pass 1  IDiag  1:
 RMSU=  1.33D-06    CP:  8.66D-01  1.68D+00  6.98D-01  8.20D-01  1.31D+00
                    CP:  9.54D-01  1.14D+00  1.22D+00
 E= -633.328712689950     Delta-E=       -0.000000190065 Rises=F Damp=F
 DIIS: error= 4.79D-06 at cycle   9 NSaved=   9.
 NSaved= 9 IEnMin= 9 EnMin= -633.328712689950     IErMin= 9 ErrMin= 4.79D-06
 ErrMax= 4.79D-06  0.00D+00 EMaxC= 1.00D-01 BMatC= 1.67D-08 BMatP= 1.14D-07
 IDIUse=1 WtCom= 1.00D+00 WtEn= 0.00D+00
 Coeff-Com: -0.860D-03 0.187D-02 0.156D-02 0.330D-03-0.230D-01-0.199D-01
 Coeff-Com: -0.341D-01 0.272D+00 0.802D+00
 Coeff:     -0.860D-03 0.187D-02 0.156D-02 0.330D-03-0.230D-01-0.199D-01
 Coeff:     -0.341D-01 0.272D+00 0.802D+00
 Gap=     0.238 Goal=   None    Shift=    0.000
 RMSDP=1.82D-06 MaxDP=1.08D-04 DE=-1.90D-07 OVMax= 1.10D-04

 Cycle  10  Pass 1  IDiag  1:
 RMSU=  7.98D-07    CP:  8.66D-01  1.68D+00  6.98D-01  8.21D-01  1.31D+00
                    CP:  9.72D-01  1.17D+00  1.34D+00  1.14D+00
 E= -633.328712714899     Delta-E=       -0.000000024949 Rises=F Damp=F
 DIIS: error= 1.59D-06 at cycle  10 NSaved=  10.
 NSaved=10 IEnMin=10 EnMin= -633.328712714899     IErMin=10 ErrMin= 1.59D-06
 ErrMax= 1.59D-06  0.00D+00 EMaxC= 1.00D-01 BMatC= 1.22D-09 BMatP= 1.67D-08
 IDIUse=1 WtCom= 1.00D+00 WtEn= 0.00D+00
 Coeff-Com: -0.232D-03 0.501D-03 0.452D-03 0.315D-03-0.329D-02-0.439D-02
 Coeff-Com: -0.357D-01 0.331D-01 0.253D+00 0.756D+00
 Coeff:     -0.232D-03 0.501D-03 0.452D-03 0.315D-03-0.329D-02-0.439D-02
 Coeff:     -0.357D-01 0.331D-01 0.253D+00 0.756D+00
 Gap=     0.238 Goal=   None    Shift=    0.000
 RMSDP=3.89D-07 MaxDP=1.63D-05 DE=-2.49D-08 OVMax= 2.89D-05

 Cycle  11  Pass 1  IDiag  1:
 RMSU=  2.54D-07    CP:  8.66D-01  1.68D+00  6.98D-01  8.21D-01  1.31D+00
                    CP:  9.74D-01  1.17D+00  1.38D+00  1.23D+00  8.93D-01
 E= -633.328712716358     Delta-E=       -0.000000001460 Rises=F Damp=F
 DIIS: error= 1.13D-06 at cycle  11 NSaved=  11.
 NSaved=11 IEnMin=11 EnMin= -633.328712716358     IErMin=11 ErrMin= 1.13D-06
 ErrMax= 1.13D-06  0.00D+00 EMaxC= 1.00D-01 BMatC= 4.12D-10 BMatP= 1.22D-09
 IDIUse=1 WtCom= 1.00D+00 WtEn= 0.00D+00
 Coeff-Com:  0.100D-04-0.250D-04 0.209D-05 0.118D-03 0.194D-02 0.109D-02
 Coeff-Com: -0.149D-01-0.263D-01 0.597D-03 0.420D+00 0.618D+00
 Coeff:      0.100D-04-0.250D-04 0.209D-05 0.118D-03 0.194D-02 0.109D-02
 Coeff:     -0.149D-01-0.263D-01 0.597D-03 0.420D+00 0.618D+00
 Gap=     0.238 Goal=   None    Shift=    0.000
 RMSDP=1.83D-07 MaxDP=1.36D-05 DE=-1.46D-09 OVMax= 9.11D-06

 Cycle  12  Pass 1  IDiag  1:
 RMSU=  9.09D-08    CP:  8.66D-01  1.68D+00  6.98D-01  8.21D-01  1.31D+00
                    CP:  9.74D-01  1.17D+00  1.39D+00  1.25D+00  1.01D+00
                    CP:  8.25D-01
 E= -633.328712716733     Delta-E=       -0.000000000375 Rises=F Damp=F
 DIIS: error= 2.89D-07 at cycle  12 NSaved=  12.
 NSaved=12 IEnMin=12 EnMin= -633.328712716733     IErMin=12 ErrMin= 2.89D-07
 ErrMax= 2.89D-07  0.00D+00 EMaxC= 1.00D-01 BMatC= 3.33D-11 BMatP= 4.12D-10
 IDIUse=1 WtCom= 1.00D+00 WtEn= 0.00D+00
 Coeff-Com:  0.230D-04-0.511D-04-0.342D-04 0.310D-04 0.121D-02 0.925D-03
 Coeff-Com: -0.391D-02-0.148D-01-0.257D-01 0.132D+00 0.294D+00 0.616D+00
 Coeff:      0.230D-04-0.511D-04-0.342D-04 0.310D-04 0.121D-02 0.925D-03
 Coeff:     -0.391D-02-0.148D-01-0.257D-01 0.132D+00 0.294D+00 0.616D+00
 Gap=     0.238 Goal=   None    Shift=    0.000
 RMSDP=3.92D-08 MaxDP=1.96D-06 DE=-3.75D-10 OVMax= 1.91D-06

 Cycle  13  Pass 1  IDiag  1:
 RMSU=  2.34D-08    CP:  8.66D-01  1.68D+00  6.98D-01  8.21D-01  1.31D+00
                    CP:  9.75D-01  1.17D+00  1.39D+00  1.26D+00  1.02D+00
                    CP:  9.17D-01  9.82D-01
 E= -633.328712716766     Delta-E=       -0.000000000033 Rises=F Damp=F
 DIIS: error= 6.53D-08 at cycle  13 NSaved=  13.
 NSaved=13 IEnMin=13 EnMin= -633.328712716766     IErMin=13 ErrMin= 6.53D-08
 ErrMax= 6.53D-08  0.00D+00 EMaxC= 1.00D-01 BMatC= 2.55D-12 BMatP= 3.33D-11
 IDIUse=1 WtCom= 1.00D+00 WtEn= 0.00D+00
 Coeff-Com:  0.616D-05-0.131D-04-0.126D-04-0.123D-04 0.638D-04 0.102D-03
 Coeff-Com:  0.123D-02 0.154D-03-0.972D-02-0.282D-01-0.115D-01 0.193D+00
 Coeff-Com:  0.855D+00
 Coeff:      0.616D-05-0.131D-04-0.126D-04-0.123D-04 0.638D-04 0.102D-03
 Coeff:      0.123D-02 0.154D-03-0.972D-02-0.282D-01-0.115D-01 0.193D+00
 Coeff:      0.855D+00
 Gap=     0.238 Goal=   None    Shift=    0.000
 RMSDP=1.81D-08 MaxDP=1.32D-06 DE=-3.29D-11 OVMax= 1.49D-06

 Cycle  14  Pass 1  IDiag  1:
 RMSU=  1.05D-08    CP:  8.66D-01  1.68D+00  6.98D-01  8.21D-01  1.31D+00
                    CP:  9.75D-01  1.17D+00  1.39D+00  1.26D+00  1.03D+00
                    CP:  9.47D-01  1.10D+00  1.05D+00
 E= -633.328712716778     Delta-E=       -0.000000000011 Rises=F Damp=F
 DIIS: error= 3.41D-08 at cycle  14 NSaved=  14.
 NSaved=14 IEnMin=14 EnMin= -633.328712716778     IErMin=14 ErrMin= 3.41D-08
 ErrMax= 3.41D-08  0.00D+00 EMaxC= 1.00D-01 BMatC= 1.99D-13 BMatP= 2.55D-12
 IDIUse=1 WtCom= 1.00D+00 WtEn= 0.00D+00
 Coeff-Com: -0.714D-06 0.169D-05 0.613D-06-0.461D-05-0.808D-04-0.458D-04
 Coeff-Com:  0.502D-03 0.133D-02 0.338D-03-0.144D-01-0.241D-01-0.209D-01
 Coeff-Com:  0.132D+00 0.925D+00
 Coeff:     -0.714D-06 0.169D-05 0.613D-06-0.461D-05-0.808D-04-0.458D-04
 Coeff:      0.502D-03 0.133D-02 0.338D-03-0.144D-01-0.241D-01-0.209D-01
 Coeff:      0.132D+00 0.925D+00
 Gap=     0.238 Goal=   None    Shift=    0.000
 RMSDP=6.17D-09 MaxDP=4.03D-07 DE=-1.15D-11 OVMax= 7.56D-07

 Error on total polarization charges =  0.01422
 SCF Done:  E(RCAM-B3LYP) =  -633.328712717     A.U. after   14 cycles
            NFock= 14  Conv=0.62D-08     -V/T= 2.0041
 KE= 6.307264357985D+02 PE=-3.277666673088D+03 EE= 1.112823851318D+03
 Leave Link  502 at Fri Jan 23 16:21:47 2026, MaxMem=  2147483648 cpu:             875.5 elap:              55.2
 (Enter /data/home/wyx/g16/l801.exe)
 DoSCS=F DFT=T ScalE2(SS,OS)=  1.000000  1.000000
 ExpMin= 9.52D-02 ExpMax= 2.70D+04 ExpMxC= 9.22D+02 IAcc=3 IRadAn=         5 AccDes= 0.00D+00
 HarFok:  IExCor=  205 AccDes= 0.00D+00 IRadAn=         5 IDoV=-2 UseB2=F ITyADJ=14
 ICtDFT= 12500011 ScaDFX=  1.000000  1.000000  1.000000  1.000000
 Largest valence mixing into a core orbital is  5.64D-05
 Largest core mixing into a valence orbital is  1.20D-05
 Range of M.O.s used for correlation:    15   356
 NBasis=   356 NAE=    52 NBE=    52 NFC=    14 NFV=     0
 NROrb=    342 NOA=    38 NOB=    38 NVA=   304 NVB=   304

 **** Warning!!: The largest alpha MO coefficient is  0.53350665D+02

 Leave Link  801 at Fri Jan 23 16:21:47 2026, MaxMem=  2147483648 cpu:               1.0 elap:               0.1
 (Enter /data/home/wyx/g16/l914.exe)
 RHF ground state
 Two-electron integrals replicated using symmetry.
 MDV=  2147483648 DFT=T DoStab=F Mixed=T DoRPA=T DoScal=F NonHer=T
 NEqPCM:  Using non-equilibrium solvation (IEInf=1, Eps=   7.4257, EpsInf=   1.9740)
 Inv3:  Mode=1 IEnd=    13267827.
 Iteration    1 A*A^-1 deviation from unit magnitude is 3.00D-15 for    324.
 Iteration    1 A*A^-1 deviation from orthogonality  is 1.48D-15 for   1470   1316.
 Iteration    1 A^-1*A deviation from unit magnitude is 3.00D-15 for    324.
 Iteration    1 A^-1*A deviation from orthogonality  is 1.90D-15 for   1532   1122.
 Making orbital integer symmetry assigments:
 Orbital symmetries:
       Occupied  (A) (A) (A) (A) (A) (A) (A) (A) (A) (A) (A) (A)
                 (A) (A) (A) (A) (A) (A) (A) (A) (A) (A) (A) (A)
                 (A) (A) (A) (A) (A) (A) (A) (A) (A) (A) (A) (A)
                 (A) (A) (A) (A) (A) (A) (A) (A) (A) (A) (A) (A)
                 (A) (A) (A) (A)
       Virtual   (A) (A) (A) (A) (A) (A) (A) (A) (A) (A) (A) (A)
                 (A) (A) (A) (A) (A) (A) (A) (A) (A) (A) (A) (A)
                 (A) (A) (A) (A) (A) (A) (A) (A) (A) (A) (A) (A)
                 (A) (A) (A) (A) (A) (A) (A) (A) (A) (A) (A) (A)
                 (A) (A) (A) (A) (A) (A) (A) (A) (A) (A) (A) (A)
                 (A) (A) (A) (A) (A) (A) (A) (A) (A) (A) (A) (A)
                 (A) (A) (A) (A) (A) (A) (A) (A) (A) (A) (A) (A)
                 (A) (A) (A) (A) (A) (A) (A) (A) (A) (A) (A) (A)
                 (A) (A) (A) (A) (A) (A) (A) (A) (A) (A) (A) (A)
                 (A) (A) (A) (A) (A) (A) (A) (A) (A) (A) (A) (A)
                 (A) (A) (A) (A) (A) (A) (A) (A) (A) (A) (A) (A)
                 (A) (A) (A) (A) (A) (A) (A) (A) (A) (A) (A) (A)
                 (A) (A) (A) (A) (A) (A) (A) (A) (A) (A) (A) (A)
                 (A) (A) (A) (A) (A) (A) (A) (A) (A) (A) (A) (A)
                 (A) (A) (A) (A) (A) (A) (A) (A) (A) (A) (A) (A)
                 (A) (A) (A) (A) (A) (A) (A) (A) (A) (A) (A) (A)
                 (A) (A) (A) (A) (A) (A) (A) (A) (A) (A) (A) (A)
                 (A) (A) (A) (A) (A) (A) (A) (A) (A) (A) (A) (A)
                 (A) (A) (A) (A) (A) (A) (A) (A) (A) (A) (A) (A)
                 (A) (A) (A) (A) (A) (A) (A) (A) (A) (A) (A) (A)
                 (A) (A) (A) (A) (A) (A) (A) (A) (A) (A) (A) (A)
                 (A) (A) (A) (A) (A) (A) (A) (A) (A) (A) (A) (A)
                 (A) (A) (A) (A) (A) (A) (A) (A) (A) (A) (A) (A)
                 (A) (A) (A) (A) (A) (A) (A) (A) (A) (A) (A) (A)
                 (A) (A) (A) (A) (A) (A) (A) (A) (A) (A) (A) (A)
                 (A) (A) (A) (A)
    24 initial guesses have been made.
 Convergence on wavefunction:    0.001000000000000
 Davidson Disk Diagonalization:  ConvIn= 1.00D-03 SkipCon=T Conv= 1.00D-03.
 Max sub-space:  2000 roots to seek:    24 dimension of matrix:        23104
 Iteration     1 Dimension    24 NMult     0 NNew     24
 CISAX will form    24 AO SS matrices at one time.
 NMat=    24 NSing=    24 JSym2X= 0.
 FoFJK:  IHMeth= 1 ICntrl=       0 DoSepK=T KAlg= 0 I1Cent=           0 FoldK=F
 IRaf=         1 NMat=      48 IRICut=       1 DoRegI=T DoRafI=F ISym2E= 0 IDoP0=3 IntGTp=3.
 New state      2 was old state      3
 New state      3 was old state      4
 New state      4 was old state      2
 New state      5 was old state      6
 New state      6 was old state      5
 Excitation Energies [eV] at current iteration:
 Root      1 :     3.940574943771830
 Root      2 :     4.331041796073272
 Root      3 :     4.515666763463685
 Root      4 :     5.543239366737057
 Root      5 :     6.181997539181398
 Root      6 :     6.459391034898072
 Root      7 :     6.732046010316293
 Root      8 :     6.789878683173034
 Root      9 :     7.024185762707736
 Root     10 :     7.058369279012065
 Root     11 :     7.261838838951570
 Root     12 :     7.432015021323021
 Root     13 :     7.583073533591005
 Root     14 :     7.665161524727650
 Root     15 :     7.778291356187628
 Root     16 :     8.015029519544777
 Root     17 :     8.126344650379147
 Root     18 :     8.258236770314065
 Root     19 :     8.268996609365878
 Root     20 :     8.573599437775409
 Root     21 :     8.684608161136092
 Root     22 :     8.964134759281970
 Root     23 :     9.062351855542344
 Root     24 :     9.142692506900312
 Iteration     2 Dimension    36 NMult    24 NNew     12
 CISAX will form    12 AO SS matrices at one time.
 NMat=    12 NSing=    12 JSym2X= 0.
 Root      1 not converged, maximum delta is    0.046243859637304
 Root      2 not converged, maximum delta is    0.073526926262901
 Root      3 not converged, maximum delta is    0.091604741689110
 Root      4 not converged, maximum delta is    0.272651657223814
 New state      5 was old state      6
 Root      5 not converged, maximum delta is    0.268852326049924
 New state      6 was old state      5
 Root      6 not converged, maximum delta is    0.167686169832683
 Excitation Energies [eV] at current iteration:
 Root      1 :     3.501770504972222   Change is   -0.438804438799608
 Root      2 :     4.092736010274451   Change is   -0.238305785798821
 Root      3 :     4.240283460313013   Change is   -0.275383303150671
 Root      4 :     5.189354142902467   Change is   -0.353885223834589
 Root      5 :     5.652872917555834   Change is   -0.806518117342238
 Root      6 :     6.054252033409861   Change is   -0.127745505771537
 Iteration     3 Dimension    48 NMult    36 NNew     12
 CISAX will form    12 AO SS matrices at one time.
 NMat=    12 NSing=    12 JSym2X= 0.
 Root      1 not converged, maximum delta is    0.008844243745812
 Root      2 not converged, maximum delta is    0.013678943450264
 Root      3 not converged, maximum delta is    0.013648461958353
 Root      4 not converged, maximum delta is    0.019753571102483
 Root      5 not converged, maximum delta is    0.020408867041339
 Root      6 not converged, maximum delta is    0.019307650295324
 Excitation Energies [eV] at current iteration:
 Root      1 :     3.484603203831515   Change is   -0.017167301140708
 Root      2 :     4.079067854554225   Change is   -0.013668155720226
 Root      3 :     4.225950584188582   Change is   -0.014332876124432
 Root      4 :     5.167612522754045   Change is   -0.021741620148422
 Root      5 :     5.626073630669400   Change is   -0.026799286886435
 Root      6 :     6.043760726376028   Change is   -0.010491307033834
 Iteration     4 Dimension    60 NMult    48 NNew     12
 CISAX will form    12 AO SS matrices at one time.
 NMat=    12 NSing=    12 JSym2X= 0.
 Root      1 not converged, maximum delta is    0.002326294849682
 Root      2 not converged, maximum delta is    0.001992752491825
 Root      3 not converged, maximum delta is    0.002156186248343
 Root      4 not converged, maximum delta is    0.002561930446626
 Root      5 not converged, maximum delta is    0.002766390923745
 Root      6 not converged, maximum delta is    0.003856428773679
 Excitation Energies [eV] at current iteration:
 Root      1 :     3.483146813527080   Change is   -0.001456390304435
 Root      2 :     4.078265065053706   Change is   -0.000802789500519
 Root      3 :     4.225111551299064   Change is   -0.000839032889518
 Root      4 :     5.165954383960460   Change is   -0.001658138793585
 Root      5 :     5.623790517169468   Change is   -0.002283113499932
 Root      6 :     6.042992543574396   Change is   -0.000768182801632
 Iteration     5 Dimension    72 NMult    60 NNew     12
 CISAX will form    12 AO SS matrices at one time.
 NMat=    12 NSing=    12 JSym2X= 0.
 Root      1 has converged.
 Root      2 has converged.
 Root      3 has converged.
 Root      4 has converged.
 Root      5 not converged, maximum delta is    0.001099915715086
 Root      6 not converged, maximum delta is    0.001039089004474
 Excitation Energies [eV] at current iteration:
 Root      1 :     3.483068787034130   Change is   -0.000078026492950
 Root      2 :     4.078216127827851   Change is   -0.000048937225855
 Root      3 :     4.225062753897746   Change is   -0.000048797401317
 Root      4 :     5.165811658835251   Change is   -0.000142725125209
 Root      5 :     5.623565521956976   Change is   -0.000224995212492
 Root      6 :     6.042935266904808   Change is   -0.000057276669588
 Iteration     6 Dimension    76 NMult    72 NNew      4
 CISAX will form     4 AO SS matrices at one time.
 NMat=     4 NSing=     4 JSym2X= 0.
 Root      1 has converged.
 Root      2 has converged.
 Root      3 has converged.
 Root      4 has converged.
 Root      5 has converged.
 Root      6 has converged.
 Excitation Energies [eV] at current iteration:
 Root      1 :     3.483068514829593   Change is   -0.000000272204537
 Root      2 :     4.078216002733710   Change is   -0.000000125094141
 Root      3 :     4.225062715152101   Change is   -0.000000038745646
 Root      4 :     5.165807723418625   Change is   -0.000003935416627
 Root      5 :     5.623550541794167   Change is   -0.000014980162809
 Root      6 :     6.042931206167366   Change is   -0.000004060737442
 Convergence achieved on expansion vectors.
 ***********************************************************************
 Excited states from <AA,BB:AA,BB> singles matrix:
 ***********************************************************************
 
 1PDM for each excited state written to RWF  633
 Ground to excited state transition densities written to RWF  633
 Ground to excited state transition electric dipole moments (Au):
       state          X           Y           Z        Dip. S.      Osc.
         1        -1.4683      0.1530      0.0395      2.1807      0.1861
         2        -0.1533     -0.0092      0.0429      0.0254      0.0025
         3        -0.0141      0.1143     -0.0337      0.0144      0.0015
         4        -0.1609     -1.3352      0.1170      1.8224      0.2306
         5        -0.0673     -1.4827      0.0491      2.2052      0.3038
         6         0.0290      0.2174      0.0811      0.0547      0.0081
 Ground to excited state transition velocity dipole moments (Au):
       state          X           Y           Z        Dip. S.      Osc.
         1         0.1801     -0.0149     -0.0059      0.0327      0.1702
         2         0.0221      0.0017     -0.0036      0.0005      0.0022
         3         0.0023     -0.0164      0.0018      0.0003      0.0012
         4         0.0328      0.2412     -0.0173      0.0596      0.2092
         5         0.0147      0.2998     -0.0104      0.0902      0.2911
         6        -0.0071     -0.0448     -0.0370      0.0034      0.0103
 Ground to excited state transition magnetic dipole moments (Au):
       state          X           Y           Z
         1        -0.0924      0.0248     -1.4329
         2         0.8005     -0.1380     -0.3636
         3         0.1624     -0.9963     -0.1827
         4         0.0432     -0.0806      0.0265
         5         0.2086     -0.1097      0.2768
         6        -0.0579     -0.0026      0.0032
 Ground to excited state transition velocity quadrupole moments (Au):
       state          XX          YY          ZZ          XY          XZ          YZ
         1        -0.1444      0.0847      0.0012     -0.5186      0.0593      0.0109
         2         0.0043     -0.0050      0.0011     -0.0613      0.0196      0.0793
         3         0.0005     -0.0057      0.0266     -0.0464      0.0614      0.0067
         4        -1.1144      0.2447     -0.0113      0.0362      0.0737     -0.0521
         5        -0.6921      0.2872      0.0515      0.1970      0.0753      0.0315
         6        -0.1605     -0.1880      0.1757      0.0101      0.0275      0.0204
 <0|del|b> * <b|rxdel|0> + <0|del|b> * <b|delr+rdel|0>
 Rotatory Strengths (R) in cgs (10**-40 erg-esu-cm/Gauss)
       state          XX          YY          ZZ    R(velocity)    E-M Angle
         1        33.3129    -25.6188    -54.8663    -15.7241       91.88
         2         3.0016     48.3565     37.0543     29.4708       20.05
         3        38.6790      0.3290     35.8050     24.9376       16.37
         4       -71.3375     -0.2259      2.6937    -22.9566      142.71
         5      -103.3442      4.6005    -13.1797    -37.3078      107.43
         6         1.3620      0.8247     -0.8944      0.4307       83.14
 1/2[<0|r|b>*<b|rxdel|0> + (<0|rxdel|b>*<b|r|0>)*]
 Rotatory Strengths (R) in cgs (10**-40 erg-esu-cm/Gauss)
       state          XX          YY          ZZ     R(length)
         1       -95.9847     -2.6831     40.0360    -19.5439
         2        86.8000     -0.8980     11.0268     32.3096
         3         1.6162     80.5317     -4.3490     25.9330
         4         4.9165    -76.1174     -2.1892    -24.4633
         5         9.9293   -114.9820     -9.6109    -38.2212
         6         1.1857      0.3978     -0.1844      0.4664
  1/2[<0|del|b>*<b|r|0> + (<0|r|b>*<b|del|0>)*] (Au)
       state          X           Y           Z        Dip. S.   Osc.(frdel)
         1        -0.2644     -0.0023     -0.0002      0.2669      0.1779
         2        -0.0034     -0.0000     -0.0002      0.0036      0.0024
         3        -0.0000     -0.0019     -0.0001      0.0020      0.0013
         4        -0.0053     -0.3221     -0.0020      0.3294      0.2196
         5        -0.0010     -0.4446     -0.0005      0.4461      0.2974
         6        -0.0002     -0.0097     -0.0030      0.0129      0.0086

 Excitation energies and oscillator strengths:
 
 Excited State   1:      Singlet-A      3.4831 eV  355.96 nm  f=0.1861  <S**2>=0.000
      52 -> 53         0.69854
 This state for optimization and/or second-order correction.
 Total Energy, E(TD-HF/TD-DFT) =  -633.200712304    
 Copying the excited state density for this state as the 1-particle RhoCI density.
 
 Excited State   2:      Singlet-A      4.0782 eV  304.02 nm  f=0.0025  <S**2>=0.000
      50 -> 54         0.19242
      51 -> 53         0.56256
      51 -> 54         0.33013
 
 Excited State   3:      Singlet-A      4.2251 eV  293.45 nm  f=0.0015  <S**2>=0.000
      49 -> 53         0.20825
      49 -> 54        -0.14236
      50 -> 53         0.53584
      50 -> 54        -0.26323
      50 -> 58         0.11256
      51 -> 54         0.20965
 
 Excited State   4:      Singlet-A      5.1658 eV  240.01 nm  f=0.2306  <S**2>=0.000
      52 -> 54         0.69741
 
 Excited State   5:      Singlet-A      5.6236 eV  220.47 nm  f=0.3038  <S**2>=0.000
      49 -> 53         0.62992
      50 -> 53        -0.23693
      51 -> 53         0.14506
 
 Excited State   6:      Singlet-A      6.0429 eV  205.17 nm  f=0.0081  <S**2>=0.000
      52 -> 55         0.66332
      52 -> 56         0.12791
 SavETr:  write IOETrn=   770 NScale= 10 NData=  16 NLR=1 NState=    6 LETran=     118.
 Leave Link  914 at Fri Jan 23 16:23:59 2026, MaxMem=  2147483648 cpu:            2096.8 elap:             131.8
 (Enter /data/home/wyx/g16/l601.exe)
 Copying SCF densities to generalized density rwf, IOpCl= 0 IROHF=0.

 **********************************************************************

            Population analysis using the SCF density.

 **********************************************************************

 Orbital symmetries:
       Occupied  (A) (A) (A) (A) (A) (A) (A) (A) (A) (A) (A) (A)
                 (A) (A) (A) (A) (A) (A) (A) (A) (A) (A) (A) (A)
                 (A) (A) (A) (A) (A) (A) (A) (A) (A) (A) (A) (A)
                 (A) (A) (A) (A) (A) (A) (A) (A) (A) (A) (A) (A)
                 (A) (A) (A) (A)
       Virtual   (A) (A) (A) (A) (A) (A) (A) (A) (A) (A) (A) (A)
                 (A) (A) (A) (A) (A) (A) (A) (A) (A) (A) (A) (A)
                 (A) (A) (A) (A) (A) (A) (A) (A) (A) (A) (A) (A)
                 (A) (A) (A) (A) (A) (A) (A) (A) (A) (A) (A) (A)
                 (A) (A) (A) (A) (A) (A) (A) (A) (A) (A) (A) (A)
                 (A) (A) (A) (A) (A) (A) (A) (A) (A) (A) (A) (A)
                 (A) (A) (A) (A) (A) (A) (A) (A) (A) (A) (A) (A)
                 (A) (A) (A) (A) (A) (A) (A) (A) (A) (A) (A) (A)
                 (A) (A) (A) (A) (A) (A) (A) (A) (A) (A) (A) (A)
                 (A) (A) (A) (A) (A) (A) (A) (A) (A) (A) (A) (A)
                 (A) (A) (A) (A) (A) (A) (A) (A) (A) (A) (A) (A)
                 (A) (A) (A) (A) (A) (A) (A) (A) (A) (A) (A) (A)
                 (A) (A) (A) (A) (A) (A) (A) (A) (A) (A) (A) (A)
                 (A) (A) (A) (A) (A) (A) (A) (A) (A) (A) (A) (A)
                 (A) (A) (A) (A) (A) (A) (A) (A) (A) (A) (A) (A)
                 (A) (A) (A) (A) (A) (A) (A) (A) (A) (A) (A) (A)
                 (A) (A) (A) (A) (A) (A) (A) (A) (A) (A) (A) (A)
                 (A) (A) (A) (A) (A) (A) (A) (A) (A) (A) (A) (A)
                 (A) (A) (A) (A) (A) (A) (A) (A) (A) (A) (A) (A)
                 (A) (A) (A) (A) (A) (A) (A) (A) (A) (A) (A) (A)
                 (A) (A) (A) (A) (A) (A) (A) (A) (A) (A) (A) (A)
                 (A) (A) (A) (A) (A) (A) (A) (A) (A) (A) (A) (A)
                 (A) (A) (A) (A) (A) (A) (A) (A) (A) (A) (A) (A)
                 (A) (A) (A) (A) (A) (A) (A) (A) (A) (A) (A) (A)
                 (A) (A) (A) (A) (A) (A) (A) (A) (A) (A) (A) (A)
                 (A) (A) (A) (A)
 The electronic state is 1-A.
 Alpha  occ. eigenvalues --  -19.17868 -19.17304 -14.44158 -10.33439 -10.32994
 Alpha  occ. eigenvalues --  -10.32075 -10.31496 -10.25954 -10.25094 -10.24817
 Alpha  occ. eigenvalues --  -10.24759 -10.24503 -10.24273 -10.23680  -1.11998
 Alpha  occ. eigenvalues --   -1.11516  -1.07581  -0.91262  -0.90267  -0.83843
 Alpha  occ. eigenvalues --   -0.82552  -0.81613  -0.78511  -0.74001  -0.71229
 Alpha  occ. eigenvalues --   -0.68583  -0.61565  -0.58219  -0.56798  -0.55177
 Alpha  occ. eigenvalues --   -0.54561  -0.53991  -0.52589  -0.51912  -0.50783
 Alpha  occ. eigenvalues --   -0.49976  -0.49517  -0.49149  -0.48624  -0.48140
 Alpha  occ. eigenvalues --   -0.46906  -0.45329  -0.45121  -0.43481  -0.43088
 Alpha  occ. eigenvalues --   -0.42374  -0.42085  -0.41971  -0.32793  -0.32212
 Alpha  occ. eigenvalues --   -0.31205  -0.26074
 Alpha virt. eigenvalues --   -0.02308   0.02517   0.06297   0.08080   0.08514
 Alpha virt. eigenvalues --    0.10034   0.10730   0.11923   0.12612   0.13511
 Alpha virt. eigenvalues --    0.14195   0.14866   0.15623   0.16105   0.16901
 Alpha virt. eigenvalues --    0.17508   0.17840   0.17920   0.18142   0.19185
 Alpha virt. eigenvalues --    0.19909   0.22069   0.22693   0.23431   0.23653
 Alpha virt. eigenvalues --    0.23922   0.24831   0.25566   0.25971   0.26437
 Alpha virt. eigenvalues --    0.26885   0.27338   0.28826   0.29070   0.30125
 Alpha virt. eigenvalues --    0.31627   0.31953   0.32685   0.33583   0.34317
 Alpha virt. eigenvalues --    0.35345   0.35900   0.36737   0.38058   0.38886
 Alpha virt. eigenvalues --    0.40080   0.40923   0.41691   0.42203   0.42684
 Alpha virt. eigenvalues --    0.43975   0.44258   0.45456   0.46018   0.46216
 Alpha virt. eigenvalues --    0.47233   0.47676   0.48013   0.48283   0.49002
 Alpha virt. eigenvalues --    0.49445   0.50384   0.50708   0.51341   0.51655
 Alpha virt. eigenvalues --    0.52846   0.53135   0.53373   0.54204   0.54357
 Alpha virt. eigenvalues --    0.54529   0.55886   0.56177   0.56605   0.58167
 Alpha virt. eigenvalues --    0.58661   0.59028   0.60653   0.61112   0.62487
 Alpha virt. eigenvalues --    0.63278   0.65648   0.66015   0.66467   0.67951
 Alpha virt. eigenvalues --    0.68607   0.70117   0.71171   0.72281   0.73049
 Alpha virt. eigenvalues --    0.73390   0.73789   0.74874   0.76078   0.77705
 Alpha virt. eigenvalues --    0.78204   0.79802   0.82010   0.84308   0.84620
 Alpha virt. eigenvalues --    0.89435   0.93302   0.99423   1.00702   1.24505
 Alpha virt. eigenvalues --    1.25685   1.27146   1.27608   1.29363   1.31554
 Alpha virt. eigenvalues --    1.32451   1.33043   1.34060   1.35052   1.35957
 Alpha virt. eigenvalues --    1.36508   1.37176   1.38167   1.39209   1.39895
 Alpha virt. eigenvalues --    1.40016   1.40226   1.41086   1.41592   1.41752
 Alpha virt. eigenvalues --    1.43247   1.44113   1.44638   1.45148   1.46976
 Alpha virt. eigenvalues --    1.48104   1.49015   1.49625   1.50482   1.51104
 Alpha virt. eigenvalues --    1.52235   1.52369   1.53859   1.54484   1.57680
 Alpha virt. eigenvalues --    1.58254   1.60536   1.60710   1.61296   1.62215
 Alpha virt. eigenvalues --    1.62616   1.63380   1.64182   1.65184   1.65620
 Alpha virt. eigenvalues --    1.67011   1.67389   1.67721   1.68184   1.68607
 Alpha virt. eigenvalues --    1.68731   1.69873   1.70526   1.72122   1.72272
 Alpha virt. eigenvalues --    1.73329   1.75162   1.76056   1.76701   1.78817
 Alpha virt. eigenvalues --    1.79951   1.83148   1.84335   1.86043   1.86528
 Alpha virt. eigenvalues --    1.86927   1.87343   1.88535   1.88987   1.90775
 Alpha virt. eigenvalues --    1.91380   1.94455   1.95190   1.98214   1.99651
 Alpha virt. eigenvalues --    2.00867   2.03773   2.04515   2.06375   2.09423
 Alpha virt. eigenvalues --    2.11239   2.12901   2.14444   2.16693   2.19448
 Alpha virt. eigenvalues --    2.20290   2.21237   2.21834   2.22663   2.25969
 Alpha virt. eigenvalues --    2.26961   2.27358   2.28981   2.30590   2.31407
 Alpha virt. eigenvalues --    2.33089   2.34616   2.36270   2.36695   2.37950
 Alpha virt. eigenvalues --    2.39468   2.40153   2.41576   2.43743   2.44780
 Alpha virt. eigenvalues --    2.45891   2.47736   2.50205   2.50436   2.51730
 Alpha virt. eigenvalues --    2.52744   2.53566   2.54931   2.56758   2.58714
 Alpha virt. eigenvalues --    2.58955   2.60039   2.60984   2.61686   2.62632
 Alpha virt. eigenvalues --    2.64427   2.65631   2.66924   2.67594   2.69085
 Alpha virt. eigenvalues --    2.70777   2.72021   2.72743   2.73604   2.74881
 Alpha virt. eigenvalues --    2.76069   2.76491   2.77390   2.78052   2.79447
 Alpha virt. eigenvalues --    2.80698   2.81430   2.83136   2.83501   2.84563
 Alpha virt. eigenvalues --    2.85564   2.86077   2.87760   2.90332   2.91742
 Alpha virt. eigenvalues --    2.97791   3.00079   3.00980   3.03872   3.10276
 Alpha virt. eigenvalues --    3.12187   3.15659   3.16596   3.16823   3.20332
 Alpha virt. eigenvalues --    3.21032   3.22222   3.25054   3.26491   3.27066
 Alpha virt. eigenvalues --    3.27669   3.29586   3.33381   3.34770   3.36593
 Alpha virt. eigenvalues --    3.37036   3.38731   3.39825   3.40249   3.41557
 Alpha virt. eigenvalues --    3.42580   3.44728   3.45473   3.46625   3.47966
 Alpha virt. eigenvalues --    3.48629   3.49364   3.55157   3.58224   3.59698
 Alpha virt. eigenvalues --    3.60432   3.89926   3.99469   4.34417   4.36276
 Alpha virt. eigenvalues --   21.63624  21.79396  22.08324  22.11006  22.11711
 Alpha virt. eigenvalues --   22.14553  22.15253  22.18209  22.20978  22.24858
 Alpha virt. eigenvalues --   22.30340  31.93052  43.63010  43.65478
          Condensed to atoms (all electrons):
               1          2          3          4          5          6
     1  O    7.934914   0.000000  -0.000236   0.000018   0.016281   0.017254
     2  O    0.000000   7.967150   0.000463   0.000034  -0.198371   0.000916
     3  N   -0.000236   0.000463   6.404900   0.374701  -0.115005   0.326367
     4  H    0.000018   0.000034   0.374701   0.412004   0.017088  -0.047764
     5  C    0.016281  -0.198371  -0.115005   0.017088   6.955917  -0.055437
     6  C    0.017254   0.000916   0.326367  -0.047764  -0.055437   5.640864
     7  C   -0.000471  -0.033253   0.374938  -0.040637   0.370791  -0.092993
     8  C   -0.000168   0.711410   0.004897  -0.000631  -0.224005   0.025520
     9  C   -0.027050   0.018390   0.014688  -0.000214  -0.473942  -0.130207
    10  H    0.016205  -0.000020  -0.001285   0.000020  -0.108041   0.025214
    11  H    0.003581   0.000091   0.003870   0.000009  -0.032051  -0.015539
    12  C   -0.216913  -0.002250  -0.091959   0.014683   0.136512  -0.181335
    13  C    0.709625  -0.000027   0.000362   0.000395   0.074779   0.183165
    14  C   -0.000005  -0.009574  -0.035729  -0.008830  -0.072971   0.009498
    15  H   -0.000000   0.004311   0.002876   0.001469   0.018603   0.006552
    16  H   -0.000000   0.001568   0.001441   0.000757  -0.009863  -0.000823
    17  H   -0.000000   0.001495  -0.002880   0.000909  -0.004476  -0.001977
    18  C   -0.000079  -0.105693  -0.000584   0.000020  -0.273641   0.000598
    19  H   -0.000003   0.009254   0.000002  -0.000001   0.024387   0.000029
    20  H    0.000081   0.003446   0.000119   0.000001   0.040567  -0.001071
    21  H    0.000019   0.001129   0.000011  -0.000000   0.005224   0.000246
    22  C   -0.106478   0.000000  -0.000071   0.000119   0.004201  -0.007496
    23  H    0.001175  -0.000000  -0.000036  -0.000017  -0.000086   0.011278
    24  H    0.004700  -0.000000  -0.000060  -0.000051  -0.000575  -0.034546
    25  H    0.007682   0.000000   0.000031  -0.000002  -0.000142  -0.001321
    26  C    0.000908   0.000003  -0.030735  -0.005541   0.000157   0.173967
    27  H   -0.000045  -0.000000  -0.002394   0.000424   0.000394  -0.035685
    28  H   -0.000248  -0.000000   0.003143   0.000885   0.000020  -0.044711
    29  H    0.000026  -0.000000   0.000109   0.000957  -0.000556  -0.050218
               7          8          9         10         11         12
     1  O   -0.000471  -0.000168  -0.027050   0.016205   0.003581  -0.216913
     2  O   -0.033253   0.711410   0.018390  -0.000020   0.000091  -0.002250
     3  N    0.374938   0.004897   0.014688  -0.001285   0.003870  -0.091959
     4  H   -0.040637  -0.000631  -0.000214   0.000020   0.000009   0.014683
     5  C    0.370791  -0.224005  -0.473942  -0.108041  -0.032051   0.136512
     6  C   -0.092993   0.025520  -0.130207   0.025214  -0.015539  -0.181335
     7  C    5.428946  -0.176603  -0.170116   0.018272  -0.004603   0.000094
     8  C   -0.176603   5.323027   0.085110  -0.009402  -0.004097  -0.030165
     9  C   -0.170116   0.085110   6.248080   0.526886   0.393655   0.033431
    10  H    0.018272  -0.009402   0.526886   0.502936  -0.034729  -0.105714
    11  H   -0.004603  -0.004097   0.393655  -0.034729   0.554668  -0.020179
    12  C    0.000094  -0.030165   0.033431  -0.105714  -0.020179   7.255250
    13  C    0.010846  -0.005370  -0.257952  -0.001560   0.000455  -0.383598
    14  C    0.260174  -0.037802   0.010570   0.000515  -0.001309  -0.004422
    15  H   -0.074869   0.005572  -0.000039  -0.000003   0.000068  -0.001248
    16  H   -0.028682  -0.007434  -0.000581  -0.000052   0.000189  -0.000057
    17  H   -0.024484  -0.002262   0.000668   0.000051  -0.000067   0.000907
    18  C    0.002607   0.312266   0.002445   0.008562  -0.009121  -0.004405
    19  H    0.000254  -0.052462  -0.000098   0.000535  -0.000048  -0.000191
    20  H    0.000608  -0.061421  -0.009407  -0.005029   0.002207   0.006741
    21  H    0.001121  -0.026586  -0.009543  -0.002444   0.001006  -0.003613
    22  C   -0.000089  -0.000044   0.002871   0.001154   0.001550  -0.255970
    23  H    0.000034   0.000003  -0.002015  -0.000116   0.000144  -0.011491
    24  H    0.000015  -0.000010   0.003409  -0.000073  -0.000123   0.066952
    25  H    0.000007   0.000003   0.000235  -0.000139  -0.000035   0.022457
    26  C    0.002110   0.000430   0.019298   0.000028  -0.000736  -0.075815
    27  H   -0.000760  -0.000009  -0.000144   0.000042  -0.000024  -0.020051
    28  H   -0.000794   0.000002  -0.000768   0.000003  -0.000102  -0.008048
    29  H    0.003751  -0.000005  -0.000549  -0.000010   0.000110   0.024189
              13         14         15         16         17         18
     1  O    0.709625  -0.000005  -0.000000  -0.000000  -0.000000  -0.000079
     2  O   -0.000027  -0.009574   0.004311   0.001568   0.001495  -0.105693
     3  N    0.000362  -0.035729   0.002876   0.001441  -0.002880  -0.000584
     4  H    0.000395  -0.008830   0.001469   0.000757   0.000909   0.000020
     5  C    0.074779  -0.072971   0.018603  -0.009863  -0.004476  -0.273641
     6  C    0.183165   0.009498   0.006552  -0.000823  -0.001977   0.000598
     7  C    0.010846   0.260174  -0.074869  -0.028682  -0.024484   0.002607
     8  C   -0.005370  -0.037802   0.005572  -0.007434  -0.002262   0.312266
     9  C   -0.257952   0.010570  -0.000039  -0.000581   0.000668   0.002445
    10  H   -0.001560   0.000515  -0.000003  -0.000052   0.000051   0.008562
    11  H    0.000455  -0.001309   0.000068   0.000189  -0.000067  -0.009121
    12  C   -0.383598  -0.004422  -0.001248  -0.000057   0.000907  -0.004405
    13  C    5.426588  -0.000047  -0.000018  -0.000001  -0.000020   0.000497
    14  C   -0.000047   5.060922   0.384516   0.425494   0.409913   0.001595
    15  H   -0.000018   0.384516   0.582894  -0.028016  -0.026534   0.000295
    16  H   -0.000001   0.425494  -0.028016   0.506758  -0.026059  -0.000248
    17  H   -0.000020   0.409913  -0.026534  -0.026059   0.509643  -0.000088
    18  C    0.000497   0.001595   0.000295  -0.000248  -0.000088   5.357957
    19  H   -0.000013   0.000063  -0.000005   0.000028  -0.000020   0.391218
    20  H    0.000472   0.000048  -0.000017  -0.000039   0.000006   0.380290
    21  H   -0.000049  -0.000277  -0.000006   0.000026  -0.000007   0.396924
    22  C    0.281867  -0.000024   0.000002  -0.000000   0.000000   0.000025
    23  H   -0.021878  -0.000000   0.000000  -0.000000   0.000000  -0.000002
    24  H   -0.091960  -0.000001   0.000000   0.000000   0.000000   0.000003
    25  H   -0.040212   0.000000   0.000000   0.000000  -0.000000  -0.000001
    26  C   -0.052783   0.001365   0.000074   0.000058  -0.000181   0.000026
    27  H    0.006277  -0.000106   0.000001   0.000004  -0.000012  -0.000001
    28  H   -0.005030   0.000094  -0.000012  -0.000001   0.000001  -0.000000
    29  H   -0.000638  -0.000270   0.000123  -0.000005   0.000003   0.000000
              19         20         21         22         23         24
     1  O   -0.000003   0.000081   0.000019  -0.106478   0.001175   0.004700
     2  O    0.009254   0.003446   0.001129   0.000000  -0.000000  -0.000000
     3  N    0.000002   0.000119   0.000011  -0.000071  -0.000036  -0.000060
     4  H   -0.000001   0.000001  -0.000000   0.000119  -0.000017  -0.000051
     5  C    0.024387   0.040567   0.005224   0.004201  -0.000086  -0.000575
     6  C    0.000029  -0.001071   0.000246  -0.007496   0.011278  -0.034546
     7  C    0.000254   0.000608   0.001121  -0.000089   0.000034   0.000015
     8  C   -0.052462  -0.061421  -0.026586  -0.000044   0.000003  -0.000010
     9  C   -0.000098  -0.009407  -0.009543   0.002871  -0.002015   0.003409
    10  H    0.000535  -0.005029  -0.002444   0.001154  -0.000116  -0.000073
    11  H   -0.000048   0.002207   0.001006   0.001550   0.000144  -0.000123
    12  C   -0.000191   0.006741  -0.003613  -0.255970  -0.011491   0.066952
    13  C   -0.000013   0.000472  -0.000049   0.281867  -0.021878  -0.091960
    14  C    0.000063   0.000048  -0.000277  -0.000024  -0.000000  -0.000001
    15  H   -0.000005  -0.000017  -0.000006   0.000002   0.000000   0.000000
    16  H    0.000028  -0.000039   0.000026  -0.000000  -0.000000   0.000000
    17  H   -0.000020   0.000006  -0.000007   0.000000   0.000000   0.000000
    18  C    0.391218   0.380290   0.396924   0.000025  -0.000002   0.000003
    19  H    0.504907  -0.021444  -0.009874  -0.000000   0.000000   0.000000
    20  H   -0.021444   0.537832  -0.026318   0.000015  -0.000000  -0.000000
    21  H   -0.009874  -0.026318   0.502371  -0.000013   0.000000  -0.000000
    22  C   -0.000000   0.000015  -0.000013   5.420713   0.400408   0.398946
    23  H    0.000000  -0.000000   0.000000   0.400408   0.494970  -0.027373
    24  H    0.000000  -0.000000  -0.000000   0.398946  -0.027373   0.541107
    25  H   -0.000000  -0.000000  -0.000000   0.385077  -0.007680  -0.021825
    26  C    0.000000  -0.000015   0.000005  -0.027350  -0.015157   0.015705
    27  H    0.000000  -0.000000   0.000000  -0.010754   0.001108  -0.001398
    28  H   -0.000000  -0.000000  -0.000000   0.008382  -0.000472  -0.010351
    29  H    0.000000   0.000000  -0.000000   0.001981   0.000227   0.000730
              25         26         27         28         29
     1  O    0.007682   0.000908  -0.000045  -0.000248   0.000026
     2  O    0.000000   0.000003  -0.000000  -0.000000  -0.000000
     3  N    0.000031  -0.030735  -0.002394   0.003143   0.000109
     4  H   -0.000002  -0.005541   0.000424   0.000885   0.000957
     5  C   -0.000142   0.000157   0.000394   0.000020  -0.000556
     6  C   -0.001321   0.173967  -0.035685  -0.044711  -0.050218
     7  C    0.000007   0.002110  -0.000760  -0.000794   0.003751
     8  C    0.000003   0.000430  -0.000009   0.000002  -0.000005
     9  C    0.000235   0.019298  -0.000144  -0.000768  -0.000549
    10  H   -0.000139   0.000028   0.000042   0.000003  -0.000010
    11  H   -0.000035  -0.000736  -0.000024  -0.000102   0.000110
    12  C    0.022457  -0.075815  -0.020051  -0.008048   0.024189
    13  C   -0.040212  -0.052783   0.006277  -0.005030  -0.000638
    14  C    0.000000   0.001365  -0.000106   0.000094  -0.000270
    15  H    0.000000   0.000074   0.000001  -0.000012   0.000123
    16  H    0.000000   0.000058   0.000004  -0.000001  -0.000005
    17  H   -0.000000  -0.000181  -0.000012   0.000001   0.000003
    18  C   -0.000001   0.000026  -0.000001  -0.000000   0.000000
    19  H   -0.000000   0.000000   0.000000  -0.000000   0.000000
    20  H   -0.000000  -0.000015  -0.000000  -0.000000   0.000000
    21  H   -0.000000   0.000005   0.000000  -0.000000  -0.000000
    22  C    0.385077  -0.027350  -0.010754   0.008382   0.001981
    23  H   -0.007680  -0.015157   0.001108  -0.000472   0.000227
    24  H   -0.021825   0.015705  -0.001398  -0.010351   0.000730
    25  H    0.491955   0.001821   0.000099   0.000871  -0.000043
    26  C    0.001821   5.256880   0.429891   0.427225   0.389979
    27  H    0.000099   0.429891   0.480760  -0.024602  -0.019462
    28  H    0.000871   0.427225  -0.024602   0.509302  -0.026783
    29  H   -0.000043   0.389979  -0.019462  -0.026783   0.523277
 Mulliken charges:
               1
     1  O   -0.360774
     2  O   -0.370472
     3  N   -0.231946
     4  H    0.279196
     5  C   -0.095759
     6  C    0.279657
     7  C    0.173787
     8  C    0.170235
     9  C   -0.277109
    10  H    0.168193
    11  H    0.161159
    12  C   -0.143792
    13  C    0.165827
    14  C   -0.393400
    15  H    0.123410
    16  H    0.165536
    17  H    0.165469
    18  C   -0.461464
    19  H    0.153484
    20  H    0.152327
    21  H    0.170647
    22  C   -0.499022
    23  H    0.176975
    24  H    0.156778
    25  H    0.161160
    26  C   -0.511620
    27  H    0.196445
    28  H    0.171994
    29  H    0.153079
 Sum of Mulliken charges =  -0.00000
 Mulliken charges with hydrogens summed into heavy atoms:
               1
     1  O   -0.360774
     2  O   -0.370472
     3  N    0.047250
     5  C   -0.095759
     6  C    0.279657
     7  C    0.173787
     8  C    0.170235
     9  C    0.052242
    12  C   -0.143792
    13  C    0.165827
    14  C    0.061016
    18  C    0.014994
    22  C   -0.004109
    26  C    0.009898
 Electronic spatial extent (au):  <R**2>=           3184.3067
 Charge=             -0.0000 electrons
 Dipole moment (field-independent basis, Debye):
    X=              3.8326    Y=              6.9879    Z=             -0.2624  Tot=              7.9742
 Quadrupole moment (field-independent basis, Debye-Ang):
   XX=            -97.1562   YY=            -78.7948   ZZ=            -84.9841
   XY=             12.1849   XZ=              5.3899   YZ=             -1.5441
 Traceless Quadrupole moment (field-independent basis, Debye-Ang):
   XX=            -10.1778   YY=              8.1836   ZZ=              1.9943
   XY=             12.1849   XZ=              5.3899   YZ=             -1.5441
 Octapole moment (field-independent basis, Debye-Ang**2):
  XXX=            104.6108  YYY=             60.9603  ZZZ=              2.0151  XYY=            -33.5898
  XXY=             28.9269  XXZ=             -9.7414  XZZ=              2.1774  YZZ=             -1.5173
  YYZ=              3.3612  XYZ=             -5.1420
 Hexadecapole moment (field-independent basis, Debye-Ang**3):
 XXXX=          -3013.0454 YYYY=          -1277.9114 ZZZZ=           -157.8125 XXXY=             34.2607
 XXXZ=             61.9354 YYYX=             84.5058 YYYZ=            -21.3804 ZZZX=             -2.7452
 ZZZY=              5.6130 XXYY=           -689.5596 XXZZ=           -485.4886 YYZZ=           -243.1104
 XXYZ=             -7.0139 YYXZ=              6.6769 ZZXY=             -1.5203
 N-N= 9.007876732550D+02 E-N=-3.277666674065D+03  KE= 6.307264357985D+02
 Leave Link  601 at Fri Jan 23 16:24:01 2026, MaxMem=  2147483648 cpu:               0.7 elap:               0.1
 (Enter /data/home/wyx/g16/l9999.exe)
 Electronic transition elements 
                 1             2             3             4             5 
      1  -0.633201D+03 -0.633179D+03 -0.633173D+03 -0.633139D+03 -0.633122D+03
      2  -0.142995D+01 -0.145377D+00 -0.473577D-01  0.280091D+00  0.424466D+00
      3  -0.350175D+00 -0.593344D-01  0.102015D+00 -0.130801D+01 -0.141686D+01
      4  -0.115554D+00  0.279641D-01 -0.417981D-01  0.181680D+00  0.132521D+00
      5   0.174202D+00  0.205000D-01  0.739342D-02 -0.475363D-01 -0.848038D-01
      6   0.465202D-01  0.893309D-02 -0.146634D-01  0.237673D+00  0.286878D+00
      7   0.128735D-01 -0.151110D-02  0.297404D-02 -0.286845D-01 -0.271843D-01
      8   0.682795D-01  0.836668D+00  0.504127D+00  0.642534D-01  0.200293D+00
      9  -0.424428D-01  0.131275D+00 -0.887253D+00 -0.606552D-01 -0.261631D-01
     10  -0.143383D+01 -0.273400D+00 -0.104610D+00  0.354806D-01  0.302277D+00
     11   0.193924D+00  0.432277D-01  0.164334D-01 -0.992001D+00 -0.710507D+00
     12  -0.269106D+00 -0.389705D-01 -0.331473D-01  0.111795D+00  0.303390D+00
     13   0.166878D-01 -0.390220D-02  0.380883D-01 -0.818167D-03  0.537472D-01
     14  -0.473068D+00 -0.536428D-01 -0.355705D-01 -0.395669D+00 -0.161818D+00
     15   0.858149D-01 -0.196956D-02  0.553084D-01 -0.158913D-01 -0.229407D-01
     16  -0.171819D-01  0.766101D-01  0.245955D-01 -0.726695D-01  0.307544D-01
                 6 
      1  -0.633107D+03
      2  -0.544308D-01
      3   0.216351D+00
      4   0.701740D-01
      5   0.125012D-01
      6  -0.454404D-01
      7  -0.347096D-01
      8  -0.537173D-01
      9  -0.218851D-01
     10  -0.238721D-02
     11  -0.169786D+00
     12  -0.176930D+00
     13   0.173905D+00
     14   0.126323D-01
     15  -0.208424D-01
     16   0.386682D-01
 1\1\GINC-CN012\SP\RCAM-B3LYP TD-FC\TZVP\C11H15N1O2\WYX\23-Jan-2026\0\\
 #p CAM-B3LYP TZVP em=gd3bj td(nstates=6,root=1) scrf=(Solvent=TetraHyd
 roFuran)\\Title Card Required\\0,1\O,0,2.835325,-1.564727,0.151062\O,0
 ,-3.419382,-1.621129,0.074814\N,0,-0.635023,1.510422,-0.364906\H,0,-0.
 943978,2.467738,-0.419095\C,0,-1.237575,-0.75755,-0.223371\C,0,0.70112
 8,1.299455,-0.105661\C,0,-1.611317,0.546648,-0.292429\C,0,-2.22378,-1.
 828409,-0.10016\C,0,0.219739,-1.111762,-0.35379\H,0,0.467803,-1.956362
 ,0.28668\H,0,0.438047,-1.468115,-1.370088\C,0,1.151411,0.02257,-0.0136
 29\C,0,2.512662,-0.393772,0.325538\C,0,-3.002158,1.088073,-0.297785\H,
 0,-3.004832,2.141752,-0.574133\H,0,-3.636378,0.537489,-0.984702\H,0,-3
 .457201,0.988603,0.685913\C,0,-1.730135,-3.249197,-0.190404\H,0,-2.579
 625,-3.920189,-0.269346\H,0,-1.067446,-3.397565,-1.041172\H,0,-1.16258
 ,-3.510819,0.703151\C,0,3.531918,0.543463,0.927016\H,0,4.046737,1.0990
 08,0.141193\H,0,3.097844,1.25847,1.621044\H,0,4.271857,-0.062626,1.444
 39\C,0,1.468101,2.577239,0.033913\H,0,1.520537,2.892581,1.076482\H,0,2
 .477723,2.497665,-0.348671\H,0,0.970578,3.371046,-0.521857\\Version=ES
 64L-G16RevA.03\State=1-A\HF=-633.3287127\RMSD=6.166e-09\PG=C01 [X(C11H
 15N1O2)]\\@


 JUST WHEN YOU THINK YOU'VE GOT THE WORLD ON A STRING,
 YOU FIND OUT IT'S YOUR LEASH.
 Job cpu time:       0 days  0 hours 49 minutes 52.6 seconds.
 Elapsed time:       0 days  0 hours  3 minutes  8.4 seconds.
 File lengths (MBytes):  RWF=    831 Int=      0 D2E=      0 Chk=     34 Scr=      1
 Normal termination of Gaussian 16 at Fri Jan 23 16:24:03 2026.
