 Entering Gaussian System, Link 0=g16
 Input=DDL-S2-cLR-7.gjf
 Output=DDL-S2-cLR-7.log
 Initial command:
 /data/home/wyx/g16/l1.exe "/scr/tmp/wyx/13106/Gau-1975308.inp" -scrdir="/scr/tmp/wyx/13106/"
 Entering Link 1 = /data/home/wyx/g16/l1.exe PID=   1975309.
  
 Copyright (c) 1988,1990,1992,1993,1995,1998,2003,2009,2016,
            Gaussian, Inc.  All Rights Reserved.
  
 This is part of the Gaussian(R) 16 program.  It is based on
 the Gaussian(R) 09 system (copyright 2009, Gaussian, Inc.),
 the Gaussian(R) 03 system (copyright 2003, Gaussian, Inc.),
 the Gaussian(R) 98 system (copyright 1998, Gaussian, Inc.),
 the Gaussian(R) 94 system (copyright 1995, Gaussian, Inc.),
 the Gaussian 92(TM) system (copyright 1992, Gaussian, Inc.),
 the Gaussian 90(TM) system (copyright 1990, Gaussian, Inc.),
 the Gaussian 88(TM) system (copyright 1988, Gaussian, Inc.),
 the Gaussian 86(TM) system (copyright 1986, Carnegie Mellon
 University), and the Gaussian 82(TM) system (copyright 1983,
 Carnegie Mellon University). Gaussian is a federally registered
 trademark of Gaussian, Inc.
  
 This software contains proprietary and confidential information,
 including trade secrets, belonging to Gaussian, Inc.
  
 This software is provided under written license and may be
 used, copied, transmitted, or stored only in accord with that
 written license.
  
 The following legend is applicable only to US Government
 contracts under FAR:
  
                    RESTRICTED RIGHTS LEGEND
  
 Use, reproduction and disclosure by the US Government is
 subject to restrictions as set forth in subparagraphs (a)
 and (c) of the Commercial Computer Software - Restricted
 Rights clause in FAR 52.227-19.
  
 Gaussian, Inc.
 340 Quinnipiac St., Bldg. 40, Wallingford CT 06492
  
  
 ---------------------------------------------------------------
 Warning -- This program may not be used in any manner that
 competes with the business of Gaussian, Inc. or will provide
 assistance to any competitor of Gaussian, Inc.  The licensee
 of this program is prohibited from giving any competitor of
 Gaussian, Inc. access to this program.  By using this program,
 the user acknowledges that Gaussian, Inc. is engaged in the
 business of creating and licensing software in the field of
 computational chemistry and represents and warrants to the
 licensee that it is not a competitor of Gaussian, Inc. and that
 it will not use this program in any manner prohibited above.
 ---------------------------------------------------------------
  

 Cite this work as:
 Gaussian 16, Revision A.03,
 M. J. Frisch, G. W. Trucks, H. B. Schlegel, G. E. Scuseria, 
 M. A. Robb, J. R. Cheeseman, G. Scalmani, V. Barone, 
 G. A. Petersson, H. Nakatsuji, X. Li, M. Caricato, A. V. Marenich, 
 J. Bloino, B. G. Janesko, R. Gomperts, B. Mennucci, H. P. Hratchian, 
 J. V. Ortiz, A. F. Izmaylov, J. L. Sonnenberg, D. Williams-Young, 
 F. Ding, F. Lipparini, F. Egidi, J. Goings, B. Peng, A. Petrone, 
 T. Henderson, D. Ranasinghe, V. G. Zakrzewski, J. Gao, N. Rega, 
 G. Zheng, W. Liang, M. Hada, M. Ehara, K. Toyota, R. Fukuda, 
 J. Hasegawa, M. Ishida, T. Nakajima, Y. Honda, O. Kitao, H. Nakai, 
 T. Vreven, K. Throssell, J. A. Montgomery, Jr., J. E. Peralta, 
 F. Ogliaro, M. J. Bearpark, J. J. Heyd, E. N. Brothers, K. N. Kudin, 
 V. N. Staroverov, T. A. Keith, R. Kobayashi, J. Normand, 
 K. Raghavachari, A. P. Rendell, J. C. Burant, S. S. Iyengar, 
 J. Tomasi, M. Cossi, J. M. Millam, M. Klene, C. Adamo, R. Cammi, 
 J. W. Ochterski, R. L. Martin, K. Morokuma, O. Farkas, 
 J. B. Foresman, and D. J. Fox, Gaussian, Inc., Wallingford CT, 2016.
 
 ******************************************
 Gaussian 16:  ES64L-G16RevA.03 25-Dec-2016
                23-Jan-2026 
 ******************************************
 %nprocshared=16
 Will use up to   16 processors via shared memory.
 %mem=16GB
 %oldchk=DDL-LR-7.chk
 %chk=DDL-S2-cLR-7.chk
 Copying data from "DDL-LR-7.chk" to current chk file "DDL-S2-cLR-7.chk"
 IOpt=  2 FromEx=T IUOpen= 4 IOptOp= 5 NList=   0 IFRang= 0 IUIn= 4 IUOut= 2.
 ----------------------------------------------------------------------
 #p CAM-B3LYP TZVP em=gd3bj td(nstates=6,root=2) scrf=(Solvent=TetraHyd
 roFuran,CorrectedLR,NonEquilibrium=Save) Geom=Check Guess=Read
 ----------------------------------------------------------------------
 1/29=2,30=1,38=1,172=1/1;
 2/12=2,40=1/2;
 3/5=19,7=101,11=9,14=-4,25=1,30=1,70=9002201,71=1,72=20,74=-40,116=-2,124=41/1,2,3,8;
 4/5=1/1;
 5/5=2,38=6,53=20/2;
 8/6=1,10=1,107=2,108=6/1;
 9/8=2,15=1,41=6,42=1,70=2,73=22/14;
 10/5=4,13=10,28=2,74=20/2;
 6/7=2,8=2,9=2,10=2,22=-1/1;
 99/5=1,9=1/99;
 Leave Link    1 at Fri Jan 23 19:01:05 2026, MaxMem=  2147483648 cpu:               1.4 elap:               0.2
 (Enter /data/home/wyx/g16/l101.exe)
 -------------------
 Title Card Required
 -------------------
 Structure from the checkpoint file:  "DDL-S2-cLR-7.chk"
 Charge =  0 Multiplicity = 1
 Z-Matrix found in chk file.
 O,0,2.838465,-1.570358,0.07902
 O,0,-3.4266,-1.638653,-0.062623
 N,0,-0.653994,1.515412,-0.250937
 H,0,-0.964881,2.474722,-0.302122
 C,0,-1.244676,-0.760561,-0.209157
 C,0,0.686978,1.32176,-0.053511
 C,0,-1.62836,0.566784,-0.257947
 C,0,-2.216337,-1.839589,-0.152746
 C,0,0.203507,-1.092919,-0.249185
 H,0,0.428903,-1.913571,0.436692
 H,0,0.461299,-1.528391,-1.229056
 C,0,1.148878,0.024885,0.021429
 C,0,2.516298,-0.398923,0.29022
 C,0,-3.016382,1.099118,-0.330496
 H,0,-3.016773,2.174666,-0.498146
 H,0,-3.579167,0.623799,-1.126949
 H,0,-3.561889,0.896921,0.587044
 C,0,-1.717988,-3.258967,-0.187447
 H,0,-2.542786,-3.926465,-0.409669
 H,0,-0.930823,-3.41539,-0.918743
 H,0,-1.310522,-3.54344,0.781541
 C,0,3.553956,0.533416,0.866513
 H,0,4.063063,1.078634,0.069273
 H,0,3.139936,1.257691,1.563139
 H,0,4.296261,-0.075783,1.377367
 C,0,1.46814,2.591157,0.028066
 H,0,1.645233,2.895303,1.059564
 H,0,2.430542,2.505552,-0.462774
 H,0,0.929718,3.403189,-0.458361
 Recover connectivity data from disk.
 ITRead=  0  0  0  0  0  0  0  0  0  0  0  0  0  0  0  0  0  0  0  0
 ITRead=  0  0  0  0  0  0  0  0  0
 MicOpt= -1 -1 -1 -1 -1 -1 -1 -1 -1 -1 -1 -1 -1 -1 -1 -1 -1 -1 -1 -1
 MicOpt= -1 -1 -1 -1 -1 -1 -1 -1 -1
 NAtoms=     29 NQM=       29 NQMF=       0 NMMI=      0 NMMIF=      0
                NMic=       0 NMicF=      0.
                    Isotopes and Nuclear Properties:
 (Nuclear quadrupole moments (NQMom) in fm**2, nuclear magnetic moments (NMagM)
  in nuclear magnetons)

  Atom         1           2           3           4           5           6           7           8           9          10
 IAtWgt=          16          16          14           1          12          12          12          12          12           1
 AtmWgt=  15.9949146  15.9949146  14.0030740   1.0078250  12.0000000  12.0000000  12.0000000  12.0000000  12.0000000   1.0078250
 NucSpn=           0           0           2           1           0           0           0           0           0           1
 AtZEff=   5.6000000   5.6000000   4.5500000   1.0000000   3.6000000   3.6000000   3.6000000   3.6000000   3.6000000   1.0000000
 NQMom=    0.0000000   0.0000000   2.0440000   0.0000000   0.0000000   0.0000000   0.0000000   0.0000000   0.0000000   0.0000000
 NMagM=    0.0000000   0.0000000   0.4037610   2.7928460   0.0000000   0.0000000   0.0000000   0.0000000   0.0000000   2.7928460
 AtZNuc=   8.0000000   8.0000000   7.0000000   1.0000000   6.0000000   6.0000000   6.0000000   6.0000000   6.0000000   1.0000000

  Atom        11          12          13          14          15          16          17          18          19          20
 IAtWgt=           1          12          12          12           1           1           1          12           1           1
 AtmWgt=   1.0078250  12.0000000  12.0000000  12.0000000   1.0078250   1.0078250   1.0078250  12.0000000   1.0078250   1.0078250
 NucSpn=           1           0           0           0           1           1           1           0           1           1
 AtZEff=   1.0000000   3.6000000   3.6000000   3.6000000   1.0000000   1.0000000   1.0000000   3.6000000   1.0000000   1.0000000
 NQMom=    0.0000000   0.0000000   0.0000000   0.0000000   0.0000000   0.0000000   0.0000000   0.0000000   0.0000000   0.0000000
 NMagM=    2.7928460   0.0000000   0.0000000   0.0000000   2.7928460   2.7928460   2.7928460   0.0000000   2.7928460   2.7928460
 AtZNuc=   1.0000000   6.0000000   6.0000000   6.0000000   1.0000000   1.0000000   1.0000000   6.0000000   1.0000000   1.0000000

  Atom        21          22          23          24          25          26          27          28          29
 IAtWgt=           1          12           1           1           1          12           1           1           1
 AtmWgt=   1.0078250  12.0000000   1.0078250   1.0078250   1.0078250  12.0000000   1.0078250   1.0078250   1.0078250
 NucSpn=           1           0           1           1           1           0           1           1           1
 AtZEff=   1.0000000   3.6000000   1.0000000   1.0000000   1.0000000   3.6000000   1.0000000   1.0000000   1.0000000
 NQMom=    0.0000000   0.0000000   0.0000000   0.0000000   0.0000000   0.0000000   0.0000000   0.0000000   0.0000000
 NMagM=    2.7928460   0.0000000   2.7928460   2.7928460   2.7928460   0.0000000   2.7928460   2.7928460   2.7928460
 AtZNuc=   1.0000000   6.0000000   1.0000000   1.0000000   1.0000000   6.0000000   1.0000000   1.0000000   1.0000000
 Leave Link  101 at Fri Jan 23 19:01:08 2026, MaxMem=  2147483648 cpu:               0.8 elap:               0.1
 (Enter /data/home/wyx/g16/l202.exe)
                          Input orientation:                          
 ---------------------------------------------------------------------
 Center     Atomic      Atomic             Coordinates (Angstroms)
 Number     Number       Type             X           Y           Z
 ---------------------------------------------------------------------
      1          8           0        2.838465   -1.570358    0.079020
      2          8           0       -3.426600   -1.638653   -0.062623
      3          7           0       -0.653994    1.515412   -0.250937
      4          1           0       -0.964881    2.474722   -0.302122
      5          6           0       -1.244676   -0.760561   -0.209157
      6          6           0        0.686978    1.321760   -0.053511
      7          6           0       -1.628360    0.566784   -0.257947
      8          6           0       -2.216337   -1.839589   -0.152746
      9          6           0        0.203507   -1.092919   -0.249185
     10          1           0        0.428903   -1.913571    0.436692
     11          1           0        0.461299   -1.528391   -1.229056
     12          6           0        1.148878    0.024885    0.021429
     13          6           0        2.516298   -0.398923    0.290220
     14          6           0       -3.016382    1.099118   -0.330496
     15          1           0       -3.016773    2.174666   -0.498146
     16          1           0       -3.579167    0.623799   -1.126949
     17          1           0       -3.561889    0.896921    0.587044
     18          6           0       -1.717988   -3.258967   -0.187447
     19          1           0       -2.542786   -3.926465   -0.409669
     20          1           0       -0.930823   -3.415390   -0.918743
     21          1           0       -1.310522   -3.543440    0.781541
     22          6           0        3.553956    0.533416    0.866513
     23          1           0        4.063063    1.078634    0.069273
     24          1           0        3.139936    1.257691    1.563139
     25          1           0        4.296261   -0.075783    1.377367
     26          6           0        1.468140    2.591157    0.028066
     27          1           0        1.645233    2.895303    1.059564
     28          1           0        2.430542    2.505552   -0.462774
     29          1           0        0.929718    3.403189   -0.458361
 ---------------------------------------------------------------------
                    Distance matrix (angstroms):
                    1          2          3          4          5
     1  O    0.000000
     2  O    6.267038   0.000000
     3  N    4.672057   4.203681   0.000000
     4  H    5.565374   4.799716   1.009726   0.000000
     5  C    4.172632   2.356546   2.351745   3.248690   0.000000
     6  C    3.607050   5.068101   1.369191   2.029721   2.844569
     7  C    4.963209   2.852327   1.359902   2.020491   1.382548
     8  C    5.067270   1.230136   3.702241   4.494634   1.453138
     9  C    2.697901   3.675637   2.745670   3.754463   1.486371
    10  H    2.460023   3.897409   3.661069   4.663217   2.132468
    11  H    2.713622   4.060601   3.386050   4.349495   2.130753
    12  C    2.324397   4.869232   2.355037   3.251825   2.529663
    13  C    1.233149   6.081074   3.742764   4.552726   3.811179
    14  C    6.447716   2.781263   2.400106   2.470172   2.571395
    15  H    6.974392   3.859927   2.465452   2.082959   3.440843
    16  H    6.888736   2.504946   3.181039   3.307680   2.865073
    17  H    6.878233   2.620974   3.088786   3.166153   2.958151
    18  C    4.866587   2.358040   4.891913   5.784074   2.542937
    19  H    5.894737   2.477025   5.762530   6.593675   3.427571
    20  H    4.313607   3.180981   4.983514   5.922398   2.765887
    21  H    4.647653   2.969615   5.204712   6.124710   2.954697
    22  C    2.357528   7.369487   4.463166   5.055123   5.085107
    23  H    2.918372   7.968444   4.748046   5.231369   5.624256
    24  H    3.208014   7.358757   4.213217   4.670106   5.141906
    25  H    2.458583   8.009914   5.448697   6.083204   5.804133
    26  C    4.381620   6.469776   2.395521   2.458083   4.318525
    27  H    4.725188   6.894893   2.984620   2.973848   4.829759
    28  H    4.131947   7.186144   3.246477   3.399361   4.923316
    29  H    5.354275   6.674900   2.472826   2.115648   4.703925
                    6          7          8          9         10
     6  C    0.000000
     7  C    2.443885   0.000000
     8  C    4.293392   2.479398   0.000000
     9  C    2.470366   2.471928   2.534258   0.000000
    10  H    3.282418   3.296516   2.711126   1.093023   0.000000
    11  H    3.091310   3.114400   2.902589   1.102833   1.710009
    12  C    1.378714   2.843371   3.851139   1.488773   2.109128
    13  C    2.534820   4.290835   4.966847   2.474185   2.583182
    14  C    3.720372   1.488371   3.050847   3.896065   4.640567
    15  H    3.826607   2.137913   4.107827   4.594485   5.427733
    16  H    4.454145   2.136367   2.979036   4.245729   4.994782
    17  H    4.317832   2.135775   3.137879   4.340155   4.883430
    18  C    5.175409   3.827450   1.504722   2.896156   2.609364
    19  H    6.172689   4.587862   2.127823   3.949286   3.687683
    20  H    5.080010   4.096452   2.173119   2.669997   2.437523
    21  H    5.325175   4.251529   2.143945   3.059368   2.408525
    22  C    3.112474   5.303011   6.321892   3.887834   3.992299
    23  H    3.387054   5.723754   6.927928   4.439958   4.721801
    24  H    2.938480   5.150762   6.420831   4.175225   4.321514
    25  H    4.126435   6.179667   6.918540   4.520052   4.383924
    26  C    1.492728   3.710553   5.765377   3.904943   4.641073
    27  H    2.152493   4.227795   6.229014   4.438165   4.999270
    28  H    2.146829   4.502828   6.369447   4.237251   4.933989
    29  H    2.134285   3.824804   6.121910   4.559180   5.414783
                   11         12         13         14         15
    11  H    0.000000
    12  C    2.109299   0.000000
    13  C    2.794086   1.456605   0.000000
    14  C    4.450335   4.315926   5.765411   0.000000
    15  H    5.132626   4.716372   6.153028   1.088536   0.000000
    16  H    4.579052   4.902232   6.341058   1.084893   1.765466
    17  H    5.036507   4.824074   6.221871   1.086435   1.762788
    18  C    2.971386   4.364199   5.131978   4.549637   5.595332
    19  H    3.930227   5.424702   6.207071   5.048470   6.120155
    20  H    2.365389   4.128507   4.737437   5.007632   5.981372
    21  H    3.352950   4.399927   4.977342   5.069510   6.102920
    22  C    4.266964   2.599456   1.509339   6.702402   6.908725
    23  H    4.631948   3.099218   2.150459   7.090753   7.186608
    24  H    4.767987   2.803746   2.180279   6.442922   6.557042
    25  H    4.859058   3.428516   2.110587   7.600785   7.877978
    26  C    4.423207   2.586063   3.179298   4.739798   4.534844
    27  H    5.119429   3.092473   3.493218   5.185480   4.967905
    28  H    4.553878   2.833871   3.001721   5.627125   5.457470
    29  H    5.013369   3.419235   4.187322   4.571302   4.133478
                   16         17         18         19         20
    16  H    0.000000
    17  H    1.735703   0.000000
    18  C    4.407099   4.612072   0.000000
    19  H    4.721597   5.029618   1.084079   0.000000
    20  H    4.834472   5.271236   1.085767   1.766006   0.000000
    21  H    5.114193   4.982297   1.088986   1.756179   1.746864
    22  C    7.406990   7.130602   6.579240   7.660903   6.236461
    23  H    7.748645   7.644671   7.231960   8.301665   6.790532
    24  H    7.265311   6.782136   6.860334   7.941081   6.675965
    25  H    8.293575   7.957467   6.982299   8.049460   6.614190
    26  C    5.538941   5.337048   6.664969   7.665412   6.536825
    27  H    6.102043   5.597403   7.123295   8.138468   7.097507
    28  H    6.332355   6.292777   7.107446   8.130661   6.823799
    29  H    5.338732   5.248694   7.174125   8.110763   7.082837
                   21         22         23         24         25
    21  H    0.000000
    22  C    6.347529   0.000000
    23  H    7.123644   1.091808   0.000000
    24  H    6.593052   1.086865   1.765180   0.000000
    25  H    6.619341   1.087709   1.760162   1.774754   0.000000
    26  C    6.776575   3.047609   3.003839   2.632391   4.114784
    27  H    7.090218   3.042861   3.182273   2.273653   3.994534
    28  H    7.220401   2.630282   2.232553   2.482886   3.678358
    29  H    7.403492   4.108225   3.936979   3.684384   5.177524
                   26         27         28         29
    26  C    0.000000
    27  H    1.089888   0.000000
    28  H    1.083730   1.756738   0.000000
    29  H    1.088993   1.753284   1.748784   0.000000
 Stoichiometry    C11H15NO2
 Framework group  C1[X(C11H15NO2)]
 Deg. of freedom    81
 Full point group                 C1      NOp   1
 RotChk:  IX=0 Diff= 1.25D-15
 Largest Abelian subgroup         C1      NOp   1
 Largest concise Abelian subgroup C1      NOp   1
                         Standard orientation:                         
 ---------------------------------------------------------------------
 Center     Atomic      Atomic             Coordinates (Angstroms)
 Number     Number       Type             X           Y           Z
 ---------------------------------------------------------------------
      1          8           0        2.286078   -2.282415   -0.244857
      2          8           0       -3.616853   -0.254138    0.318399
      3          7           0        0.020844    1.802378   -0.138584
      4          1           0        0.047288    2.811753   -0.141665
      5          6           0       -1.293549   -0.146224   -0.060972
      6          6           0        1.231208    1.163722   -0.095889
      7          6           0       -1.211214    1.233814   -0.048574
      8          6           0       -2.560502   -0.841669    0.090007
      9          6           0       -0.053573   -0.939225   -0.268114
     10          1           0       -0.048989   -1.821526    0.377040
     11          1           0       -0.058169   -1.385766   -1.276489
     12          6           0        1.235005   -0.214977   -0.090699
     13          6           0        2.399952   -1.082750    0.016856
     14          6           0       -2.339022    2.200759    0.042614
     15          1           0       -1.994601    3.222094   -0.109566
     16          1           0       -3.106658    1.980610   -0.691730
     17          1           0       -2.824628    2.145762    1.012926
     18          6           0       -2.574918   -2.342334   -0.019474
     19          1           0       -3.594220   -2.685132   -0.156368
     20          1           0       -1.964795   -2.714840   -0.836713
     21          1           0       -2.190770   -2.794611    0.893635
     22          6           0        3.743571   -0.579248    0.485125
     23          1           0        4.322698   -0.195192   -0.356990
     24          1           0        3.670301    0.205499    1.233508
     25          1           0        4.285469   -1.425693    0.901045
     26          6           0        2.397853    2.094890   -0.085795
     27          1           0        2.770668    2.270411    0.923192
     28          1           0        3.220270    1.718633   -0.682899
     29          1           0        2.117549    3.063232   -0.497680
 ---------------------------------------------------------------------
 Rotational constants (GHZ):           1.0774734           0.4903628           0.3443071
 Leave Link  202 at Fri Jan 23 19:01:08 2026, MaxMem=  2147483648 cpu:               0.0 elap:               0.0
 (Enter /data/home/wyx/g16/l301.exe)
 Standard basis: TZVP (5D, 7F)
 Ernie: Thresh=  0.10000D-02 Tol=  0.10000D-05 Strict=F.
 There are   370 symmetry adapted cartesian basis functions of A   symmetry.
 There are   356 symmetry adapted basis functions of A   symmetry.
   356 basis functions,   610 primitive gaussians,   370 cartesian basis functions
    52 alpha electrons       52 beta electrons
       nuclear repulsion energy       900.1799649343 Hartrees.
 IExCor=20419 DFT=T Ex+Corr=CAM-B3LYP ExCW=0 ScaHFX=  1.000000
 ScaDFX=  1.000000  1.000000  1.000000  0.810000 ScalE2=  1.000000  1.000000
 IRadAn=      5 IRanWt=     -1 IRanGd=            0 ICorTp=0 IEmpDi=141
 HFx  wShort=  0.000000 wLong=  0.330000 cFull=  0.190000 cShort=  0.000000 cLong=  0.460000
 DFx  wShort=  0.000000 wLong=  0.330000 cFull=  0.190000 cShort=  0.000000 cLong=  0.460000
 NAtoms=   29 NActive=   29 NUniq=   29 SFac= 1.00D+00 NAtFMM=   60 NAOKFM=F Big=F
 Integral buffers will be    131072 words long.
 Raffenetti 1 integral format.
 Two-electron integral symmetry is turned on.
 R6Disp:  Grimme-D3(BJ) Dispersion energy=       -0.0261617359 Hartrees.
 Nuclear repulsion after empirical dispersion term =      900.1538031984 Hartrees.
 ------------------------------------------------------------------------------
 Polarizable Continuum Model (PCM)
 =================================
 Model                : PCM.
 Atomic radii         : UFF (Universal Force Field).
 Polarization charges : Total charges.
 Charge compensation  : None.
 Solution method      : On-the-fly selection.
 Cavity type          : Scaled VdW (van der Waals Surface) (Alpha=1.100).
 Cavity algorithm     : GePol (No added spheres)
                        Default sphere list used, NSphG=   29.
                        Lebedev-Laikov grids with approx.  5.0 points / Ang**2.
                        Smoothing algorithm: York/Karplus (Gamma=1.0000).
                        Polarization charges: spherical gaussians, with
                                              point-specific exponents (IZeta= 3).
                        Self-potential: point-specific (ISelfS= 7).
                        Self-field    : sphere-specific E.n sum rule (ISelfD= 2).
 1st derivatives      : Analytical E(r).r(x)/FMM algorithm (CHGder, D1EAlg=3).
                        Cavity 1st derivative terms included.
 Solvent              : TetraHydroFuran, Eps=   7.425700 Eps(inf)=   1.974025
 ------------------------------------------------------------------------------
 GePol: Number of generator spheres                  =      29
 GePol: Total number of spheres                      =      29
 GePol: Number of exposed spheres                    =      29 (100.00%)
 GePol: Number of points                             =    2124
 GePol: Average weight of points                     =       0.13
 GePol: Minimum weight of points                     =   0.40D-09
 GePol: Maximum weight of points                     =    0.20577
 GePol: Number of points with low weight             =     140
 GePol: Fraction of low-weight points (<1% of avg)   =       6.59%
 GePol: Cavity surface area                          =    268.604 Ang**2
 GePol: Cavity volume                                =    286.664 Ang**3
 Leave Link  301 at Fri Jan 23 19:01:08 2026, MaxMem=  2147483648 cpu:               0.6 elap:               0.0
 (Enter /data/home/wyx/g16/l302.exe)
 NPDir=0 NMtPBC=     1 NCelOv=     1 NCel=       1 NClECP=     1 NCelD=      1
         NCelK=      1 NCelE2=     1 NClLst=     1 CellRange=     0.0.
 One-electron integrals computed using PRISM.
 One-electron integral symmetry used in STVInt
 NBasis=   356 RedAO= T EigKep=  4.50D-05  NBF=   356
 NBsUse=   356 1.00D-06 EigRej= -1.00D+00 NBFU=   356
 Precomputing XC quadrature grid using
 IXCGrd= 4 IRadAn=           5 IRanWt=          -1 IRanGd=           0 AccXCQ= 0.00D+00.
 Generated NRdTot=       0 NPtTot=           0 NUsed=           0 NTot=          32
 NSgBfM=   366   366   366   366   366 MxSgAt=    29 MxSgA2=    29.
 Leave Link  302 at Fri Jan 23 19:01:09 2026, MaxMem=  2147483648 cpu:               3.1 elap:               0.2
 (Enter /data/home/wyx/g16/l303.exe)
 DipDrv:  MaxL=1.
 Leave Link  303 at Fri Jan 23 19:01:09 2026, MaxMem=  2147483648 cpu:               0.6 elap:               0.0
 (Enter /data/home/wyx/g16/l308.exe)
 Leave Link  308 at Fri Jan 23 19:01:09 2026, MaxMem=  2147483648 cpu:               0.7 elap:               0.1
 (Enter /data/home/wyx/g16/l401.exe)
 Initial guess from the checkpoint file:  "DDL-S2-cLR-7.chk"
 B after Tr=     0.000000   -0.000000    0.000000
         Rot=    1.000000   -0.000000    0.000000    0.000000 Ang=   0.00 deg.
 Guess basis will be translated and rotated to current coordinates.
 JPrj=2 DoOrth=T DoCkMO=T.
 Leave Link  401 at Fri Jan 23 19:01:09 2026, MaxMem=  2147483648 cpu:               2.2 elap:               0.1
 (Enter /data/home/wyx/g16/l502.exe)
 Integral symmetry usage will be decided dynamically.
 Closed shell SCF:
 Using DIIS extrapolation, IDIIS=  1040.
 NGot=  2147483648 LenX=  2147200095 LenY=  2147062754
 Requested convergence on RMS density matrix=1.00D-08 within 128 cycles.
 Requested convergence on MAX density matrix=1.00D-06.
 Requested convergence on             energy=1.00D-06.
 No special actions if energy rises.
 Fock matrices will be formed incrementally for  20 cycles.

 Cycle   1  Pass 1  IDiag  1:
 FoFJK:  IHMeth= 1 ICntrl=       0 DoSepK=T KAlg= 0 I1Cent=           0 FoldK=F
 IRaf=         1 NMat=       1 IRICut=       1 DoRegI=T DoRafI=F ISym2E= 0 IDoP0=0 IntGTp=1.
 FoFCou: FMM=F IPFlag=           0 FMFlag=      100000 FMFlg1=           0
         NFxFlg=           0 DoJE=T BraDBF=F KetDBF=F FulRan=T
         wScrn=  0.000000 ICntrl=       500 IOpCl=  0 I1Cent=           0 NGrid=           0
         NMat0=    1 NMatS0=      1 NMatT0=    0 NMatD0=    1 NMtDS0=    0 NMtDT0=    0
 Symmetry not used in FoFCou.
 Inv3:  Mode=1 IEnd=    13534128.
 Iteration    1 A*A^-1 deviation from unit magnitude is 2.89D-15 for   1134.
 Iteration    1 A*A^-1 deviation from orthogonality  is 1.82D-15 for   1315    438.
 Iteration    1 A^-1*A deviation from unit magnitude is 3.11D-15 for   1134.
 Iteration    1 A^-1*A deviation from orthogonality  is 2.71D-15 for   1546   1126.
 E= -633.324825217218    
 DIIS: error= 1.48D-08 at cycle   1 NSaved=   1.
 NSaved= 1 IEnMin= 1 EnMin= -633.324825217218     IErMin= 1 ErrMin= 1.48D-08
 ErrMax= 1.48D-08  0.00D+00 EMaxC= 1.00D-01 BMatC= 5.93D-14 BMatP= 5.93D-14
 IDIUse=1 WtCom= 1.00D+00 WtEn= 0.00D+00
 Coeff-Com:  0.100D+01
 Coeff:      0.100D+01
 Gap=     0.225 Goal=   None    Shift=    0.000
 RMSDP=2.98D-09 MaxDP=8.11D-08              OVMax= 2.85D-07

 Error on total polarization charges =  0.01421
 SCF Done:  E(RCAM-B3LYP) =  -633.324825217     A.U. after    1 cycles
            NFock=  1  Conv=0.30D-08     -V/T= 2.0041
 KE= 6.307118564944D+02 PE=-3.276338998550D+03 EE= 1.112148513640D+03
 Leave Link  502 at Fri Jan 23 19:01:15 2026, MaxMem=  2147483648 cpu:              87.1 elap:               5.7
 (Enter /data/home/wyx/g16/l801.exe)
 DoSCS=F DFT=T ScalE2(SS,OS)=  1.000000  1.000000
 ExpMin= 9.52D-02 ExpMax= 2.70D+04 ExpMxC= 9.22D+02 IAcc=3 IRadAn=         5 AccDes= 0.00D+00
 HarFok:  IExCor=  205 AccDes= 0.00D+00 IRadAn=         5 IDoV=-2 UseB2=F ITyADJ=14
 ICtDFT= 12500011 ScaDFX=  1.000000  1.000000  1.000000  1.000000
 Largest valence mixing into a core orbital is  5.60D-05
 Largest core mixing into a valence orbital is  1.17D-05
 Range of M.O.s used for correlation:    15   356
 NBasis=   356 NAE=    52 NBE=    52 NFC=    14 NFV=     0
 NROrb=    342 NOA=    38 NOB=    38 NVA=   304 NVB=   304

 **** Warning!!: The largest alpha MO coefficient is  0.60515039D+02

 Leave Link  801 at Fri Jan 23 19:01:16 2026, MaxMem=  2147483648 cpu:               1.0 elap:               0.1
 (Enter /data/home/wyx/g16/l914.exe)
 RHF ground state
 Two-electron integrals replicated using symmetry.
 MDV=  2147483648 DFT=T DoStab=F Mixed=T DoRPA=T DoScal=F NonHer=T
 NEqPCM:  Using equilibrium solvation (IEInf=0, Eps=   7.4257, EpsInf=   1.9740)
 Making orbital integer symmetry assigments:
 Orbital symmetries:
       Occupied  (A) (A) (A) (A) (A) (A) (A) (A) (A) (A) (A) (A)
                 (A) (A) (A) (A) (A) (A) (A) (A) (A) (A) (A) (A)
                 (A) (A) (A) (A) (A) (A) (A) (A) (A) (A) (A) (A)
                 (A) (A) (A) (A) (A) (A) (A) (A) (A) (A) (A) (A)
                 (A) (A) (A) (A)
       Virtual   (A) (A) (A) (A) (A) (A) (A) (A) (A) (A) (A) (A)
                 (A) (A) (A) (A) (A) (A) (A) (A) (A) (A) (A) (A)
                 (A) (A) (A) (A) (A) (A) (A) (A) (A) (A) (A) (A)
                 (A) (A) (A) (A) (A) (A) (A) (A) (A) (A) (A) (A)
                 (A) (A) (A) (A) (A) (A) (A) (A) (A) (A) (A) (A)
                 (A) (A) (A) (A) (A) (A) (A) (A) (A) (A) (A) (A)
                 (A) (A) (A) (A) (A) (A) (A) (A) (A) (A) (A) (A)
                 (A) (A) (A) (A) (A) (A) (A) (A) (A) (A) (A) (A)
                 (A) (A) (A) (A) (A) (A) (A) (A) (A) (A) (A) (A)
                 (A) (A) (A) (A) (A) (A) (A) (A) (A) (A) (A) (A)
                 (A) (A) (A) (A) (A) (A) (A) (A) (A) (A) (A) (A)
                 (A) (A) (A) (A) (A) (A) (A) (A) (A) (A) (A) (A)
                 (A) (A) (A) (A) (A) (A) (A) (A) (A) (A) (A) (A)
                 (A) (A) (A) (A) (A) (A) (A) (A) (A) (A) (A) (A)
                 (A) (A) (A) (A) (A) (A) (A) (A) (A) (A) (A) (A)
                 (A) (A) (A) (A) (A) (A) (A) (A) (A) (A) (A) (A)
                 (A) (A) (A) (A) (A) (A) (A) (A) (A) (A) (A) (A)
                 (A) (A) (A) (A) (A) (A) (A) (A) (A) (A) (A) (A)
                 (A) (A) (A) (A) (A) (A) (A) (A) (A) (A) (A) (A)
                 (A) (A) (A) (A) (A) (A) (A) (A) (A) (A) (A) (A)
                 (A) (A) (A) (A) (A) (A) (A) (A) (A) (A) (A) (A)
                 (A) (A) (A) (A) (A) (A) (A) (A) (A) (A) (A) (A)
                 (A) (A) (A) (A) (A) (A) (A) (A) (A) (A) (A) (A)
                 (A) (A) (A) (A) (A) (A) (A) (A) (A) (A) (A) (A)
                 (A) (A) (A) (A) (A) (A) (A) (A) (A) (A) (A) (A)
                 (A) (A) (A) (A)
 PCM Corrected Linear-Response:
 Compute the excitation energies in the ground state reaction field.
    24 initial guesses have been made.
 Convergence on wavefunction:    0.000001000000000
 Davidson Disk Diagonalization:  ConvIn= 1.00D-06 SkipCon=T Conv= 1.00D-06.
 Max sub-space:  2000 roots to seek:    24 dimension of matrix:        23104
 Iteration     1 Dimension    24 NMult     0 NNew     24
 CISAX will form    24 AO SS matrices at one time.
 NMat=    24 NSing=    24 JSym2X= 0.
 FoFJK:  IHMeth= 1 ICntrl=       0 DoSepK=T KAlg= 0 I1Cent=           0 FoldK=F
 IRaf=         1 NMat=      48 IRICut=       1 DoRegI=T DoRafI=F ISym2E= 0 IDoP0=3 IntGTp=3.
 FoFCou: FMM=F IPFlag=           0 FMFlag=      100000 FMFlg1=           0
         NFxFlg=           0 DoJE=F BraDBF=F KetDBF=F FulRan=T
         wScrn=  0.000000 ICntrl=       500 IOpCl=  0 I1Cent=           0 NGrid=           0
         NMat0=   24 NMatS0=     24 NMatT0=    0 NMatD0=   24 NMtDS0=    0 NMtDT0=    0
 Symmetry not used in FoFCou.
 New state      2 was old state      3
 New state      3 was old state      4
 New state      4 was old state      2
 New state      5 was old state      6
 New state      6 was old state      5
 Excitation Energies [eV] at current iteration:
 Root      1 :     3.717890556113206
 Root      2 :     4.226800661838161
 Root      3 :     4.431642042242888
 Root      4 :     5.407223138105940
 Root      5 :     6.000790493600261
 Root      6 :     6.395347192347995
 Root      7 :     6.572232097459704
 Root      8 :     6.729190098750919
 Root      9 :     6.900304586449328
 Root     10 :     6.990509595040498
 Root     11 :     7.190128368271126
 Root     12 :     7.356910441921518
 Root     13 :     7.429506949219181
 Root     14 :     7.479272257380263
 Root     15 :     7.863185183758395
 Root     16 :     7.925070881249649
 Root     17 :     8.052361110538747
 Root     18 :     8.134925850813129
 Root     19 :     8.248707968740774
 Root     20 :     8.322840509873201
 Root     21 :     8.455876998262893
 Root     22 :     8.654021354814775
 Root     23 :     8.789736923558433
 Root     24 :     8.983323355820096
 Iteration     2 Dimension    36 NMult    24 NNew     12
 CISAX will form    12 AO SS matrices at one time.
 NMat=    12 NSing=    12 JSym2X= 0.
 Root      1 not converged, maximum delta is    0.040897756768179
 Root      2 not converged, maximum delta is    0.075217722999157
 Root      3 not converged, maximum delta is    0.091460161733090
 Root      4 not converged, maximum delta is    0.199504363920363
 New state      5 was old state      6
 Root      5 not converged, maximum delta is    0.188948275292191
 New state      6 was old state      5
 Root      6 not converged, maximum delta is    0.090990008411862
 Excitation Energies [eV] at current iteration:
 Root      1 :     3.250698065555774   Change is   -0.467192490557433
 Root      2 :     4.003899155787624   Change is   -0.222901506050536
 Root      3 :     4.166392928698546   Change is   -0.265249113544342
 Root      4 :     5.092447300610107   Change is   -0.314775837495833
 Root      5 :     5.585924428113140   Change is   -0.809422764234854
 Root      6 :     5.896235737288124   Change is   -0.104554756312137
 Iteration     3 Dimension    48 NMult    36 NNew     12
 CISAX will form    12 AO SS matrices at one time.
 NMat=    12 NSing=    12 JSym2X= 0.
 Root      1 not converged, maximum delta is    0.009196523027972
 Root      2 not converged, maximum delta is    0.015974075759047
 Root      3 not converged, maximum delta is    0.013794621237688
 Root      4 not converged, maximum delta is    0.025067210981799
 Root      5 not converged, maximum delta is    0.025671395759345
 Root      6 not converged, maximum delta is    0.006286226647605
 Excitation Energies [eV] at current iteration:
 Root      1 :     3.230856103576637   Change is   -0.019841961979137
 Root      2 :     3.990724405672295   Change is   -0.013174750115330
 Root      3 :     4.152130555451913   Change is   -0.014262373246633
 Root      4 :     5.071757070644423   Change is   -0.020690229965685
 Root      5 :     5.540477871563018   Change is   -0.045446556550122
 Root      6 :     5.891292427267473   Change is   -0.004943310020651
 Iteration     4 Dimension    60 NMult    48 NNew     12
 CISAX will form    12 AO SS matrices at one time.
 NMat=    12 NSing=    12 JSym2X= 0.
 Root      1 not converged, maximum delta is    0.002592930128367
 Root      2 not converged, maximum delta is    0.001787330125026
 Root      3 not converged, maximum delta is    0.002363278961255
 Root      4 not converged, maximum delta is    0.002915891611173
 Root      5 not converged, maximum delta is    0.004597641173171
 Root      6 not converged, maximum delta is    0.001920911645246
 Excitation Energies [eV] at current iteration:
 Root      1 :     3.229284641897988   Change is   -0.001571461678649
 Root      2 :     3.990075167280566   Change is   -0.000649238391728
 Root      3 :     4.151195907810729   Change is   -0.000934647641184
 Root      4 :     5.069672900898473   Change is   -0.002084169745950
 Root      5 :     5.535041173818185   Change is   -0.005436697744833
 Root      6 :     5.890972852640624   Change is   -0.000319574626850
 Iteration     5 Dimension    72 NMult    60 NNew     12
 CISAX will form    12 AO SS matrices at one time.
 NMat=    12 NSing=    12 JSym2X= 0.
 Root      1 not converged, maximum delta is    0.000736268340042
 Root      2 not converged, maximum delta is    0.000356115488404
 Root      3 not converged, maximum delta is    0.000525937495712
 Root      4 not converged, maximum delta is    0.000610291679379
 Root      5 not converged, maximum delta is    0.001205151691129
 Root      6 not converged, maximum delta is    0.000309811108316
 Excitation Energies [eV] at current iteration:
 Root      1 :     3.229194950708321   Change is   -0.000089691189668
 Root      2 :     3.990022482692425   Change is   -0.000052684588141
 Root      3 :     4.151146402993045   Change is   -0.000049504817684
 Root      4 :     5.069527579772128   Change is   -0.000145321126345
 Root      5 :     5.534635649948348   Change is   -0.000405523869837
 Root      6 :     5.890948193374554   Change is   -0.000024659266069
 Iteration     6 Dimension    84 NMult    72 NNew     12
 CISAX will form    12 AO SS matrices at one time.
 NMat=    12 NSing=    12 JSym2X= 0.
 Root      1 not converged, maximum delta is    0.000168031873734
 Root      2 not converged, maximum delta is    0.000131772969215
 Root      3 not converged, maximum delta is    0.000133800895736
 Root      4 not converged, maximum delta is    0.000303814846636
 Root      5 not converged, maximum delta is    0.000567200191929
 Root      6 not converged, maximum delta is    0.000135019135920
 Excitation Energies [eV] at current iteration:
 Root      1 :     3.229190178891025   Change is   -0.000004771817296
 Root      2 :     3.990019385320843   Change is   -0.000003097371582
 Root      3 :     4.151143562719574   Change is   -0.000002840273471
 Root      4 :     5.069517191005033   Change is   -0.000010388767095
 Root      5 :     5.534603002045648   Change is   -0.000032647902700
 Root      6 :     5.890945871895335   Change is   -0.000002321479220
 Iteration     7 Dimension    96 NMult    84 NNew     12
 CISAX will form    12 AO SS matrices at one time.
 NMat=    12 NSing=    12 JSym2X= 0.
 Root      1 not converged, maximum delta is    0.000018479195473
 Root      2 not converged, maximum delta is    0.000028230891897
 Root      3 not converged, maximum delta is    0.000033642627597
 Root      4 not converged, maximum delta is    0.000083939999158
 Root      5 not converged, maximum delta is    0.000234017539816
 Root      6 not converged, maximum delta is    0.000058077567716
 Excitation Energies [eV] at current iteration:
 Root      1 :     3.229189925808812   Change is   -0.000000253082212
 Root      2 :     3.990019222911141   Change is   -0.000000162409701
 Root      3 :     4.151143399485528   Change is   -0.000000163234046
 Root      4 :     5.069516270946271   Change is   -0.000000920058762
 Root      5 :     5.534599111551835   Change is   -0.000003890493813
 Root      6 :     5.890945668716103   Change is   -0.000000203179231
 Iteration     8 Dimension   108 NMult    96 NNew     12
 CISAX will form    12 AO SS matrices at one time.
 NMat=    12 NSing=    12 JSym2X= 0.
 Root      1 not converged, maximum delta is    0.000002951201344
 Root      2 not converged, maximum delta is    0.000002856201058
 Root      3 not converged, maximum delta is    0.000002767050694
 Root      4 not converged, maximum delta is    0.000025028843476
 Root      5 not converged, maximum delta is    0.000035546671809
 Root      6 not converged, maximum delta is    0.000012745620840
 Excitation Energies [eV] at current iteration:
 Root      1 :     3.229189915913712   Change is   -0.000000009895100
 Root      2 :     3.990019215105298   Change is   -0.000000007805844
 Root      3 :     4.151143390511158   Change is   -0.000000008974370
 Root      4 :     5.069516197662985   Change is   -0.000000073283286
 Root      5 :     5.534598811825027   Change is   -0.000000299726809
 Root      6 :     5.890945651637504   Change is   -0.000000017078599
 Iteration     9 Dimension   120 NMult   108 NNew     12
 CISAX will form    12 AO SS matrices at one time.
 NMat=    12 NSing=    12 JSym2X= 0.
 Root      1 has converged.
 Root      2 has converged.
 Root      3 has converged.
 Root      4 not converged, maximum delta is    0.000004956661947
 Root      5 not converged, maximum delta is    0.000010908751779
 Root      6 not converged, maximum delta is    0.000004112324434
 Excitation Energies [eV] at current iteration:
 Root      1 :     3.229189915616316   Change is   -0.000000000297396
 Root      2 :     3.990019214828059   Change is   -0.000000000277238
 Root      3 :     4.151143390219946   Change is   -0.000000000291212
 Root      4 :     5.069516193619271   Change is   -0.000000004043714
 Root      5 :     5.534598793715411   Change is   -0.000000018109616
 Root      6 :     5.890945650244598   Change is   -0.000000001392907
 Iteration    10 Dimension   126 NMult   120 NNew      6
 CISAX will form     6 AO SS matrices at one time.
 NMat=     6 NSing=     6 JSym2X= 0.
 Root      1 has converged.
 Root      2 has converged.
 Root      3 has converged.
 Root      4 has converged.
 Root      5 not converged, maximum delta is    0.000002206933824
 Root      6 has converged.
 Excitation Energies [eV] at current iteration:
 Root      1 :     3.229189915615731   Change is   -0.000000000000586
 Root      2 :     3.990019214825999   Change is   -0.000000000002060
 Root      3 :     4.151143390218600   Change is   -0.000000000001347
 Root      4 :     5.069516193419991   Change is   -0.000000000199280
 Root      5 :     5.534598792719298   Change is   -0.000000000996112
 Root      6 :     5.890945650140061   Change is   -0.000000000104537
 Iteration    11 Dimension   128 NMult   126 NNew      2
 CISAX will form     2 AO SS matrices at one time.
 NMat=     2 NSing=     2 JSym2X= 0.
 Root      1 has converged.
 Root      2 has converged.
 Root      3 has converged.
 Root      4 has converged.
 Root      5 has converged.
 Root      6 has converged.
 Excitation Energies [eV] at current iteration:
 Root      1 :     3.229189915615552   Change is   -0.000000000000178
 Root      2 :     3.990019214825938   Change is   -0.000000000000061
 Root      3 :     4.151143390218600   Change is    0.000000000000000
 Root      4 :     5.069516193416359   Change is   -0.000000000003632
 Root      5 :     5.534598792666732   Change is   -0.000000000052567
 Root      6 :     5.890945650138289   Change is   -0.000000000001772
 Convergence achieved on expansion vectors.
 PCM Corrected Linear-Response:
 The state of interest is root number   2
 Excitation energy =    3.9900 eV, Total energy =  -633.178194709    
 Recompute the excitation energies using the linear response reaction field.
 Convergence on wavefunction:    0.000001000000000
 Davidson Disk Diagonalization:  ConvIn= 1.00D-06 SkipCon=T Conv= 1.00D-06.
 Max sub-space:  2000 roots to seek:     6 dimension of matrix:        23104
 Iteration     1 Dimension     6 NMult     0 NNew      6
 CISAX will form     6 AO SS matrices at one time.
 NMat=     6 NSing=     6 JSym2X= 0.
 Excitation Energies [eV] at current iteration:
 Root      1 :     3.338040165218227
 Root      2 :     4.016507626445488
 Root      3 :     4.178167993968612
 Root      4 :     5.146128029105244
 Root      5 :     5.712329871111486
 Root      6 :     5.869042149866076
 Iteration     2 Dimension    18 NMult     6 NNew     12
 CISAX will form    12 AO SS matrices at one time.
 NMat=    12 NSing=    12 JSym2X= 0.
 Root      1 not converged, maximum delta is    0.019732905583237
 Root      2 not converged, maximum delta is    0.008774449004419
 Root      3 not converged, maximum delta is    0.006452771771769
 Root      4 not converged, maximum delta is    0.215381829649783
 Root      5 not converged, maximum delta is    0.256252123523128
 Root      6 not converged, maximum delta is    0.107012349804692
 Excitation Energies [eV] at current iteration:
 Root      1 :     3.115049411905882   Change is   -0.222990753312345
 Root      2 :     3.985903803119095   Change is   -0.030603823326393
 Root      3 :     4.146114285305786   Change is   -0.032053708662825
 Root      4 :     4.947666583134844   Change is   -0.198461445970399
 Root      5 :     5.406038967243052   Change is   -0.306290903868435
 Root      6 :     5.848090612625940   Change is   -0.020951537240136
 Iteration     3 Dimension    30 NMult    18 NNew     12
 CISAX will form    12 AO SS matrices at one time.
 NMat=    12 NSing=    12 JSym2X= 0.
 Root      1 not converged, maximum delta is    0.002493644811241
 Root      2 not converged, maximum delta is    0.000829217375249
 Root      3 not converged, maximum delta is    0.001040381374843
 Root      4 not converged, maximum delta is    0.011864197893515
 Root      5 not converged, maximum delta is    0.012353597440905
 Root      6 not converged, maximum delta is    0.009537221560905
 Excitation Energies [eV] at current iteration:
 Root      1 :     3.112249161416320   Change is   -0.002800250489563
 Root      2 :     3.985637578961734   Change is   -0.000266224157361
 Root      3 :     4.145816042942167   Change is   -0.000298242363620
 Root      4 :     4.939899770554568   Change is   -0.007766812580276
 Root      5 :     5.397472023177525   Change is   -0.008566944065526
 Root      6 :     5.846805888168716   Change is   -0.001284724457224
 Iteration     4 Dimension    42 NMult    30 NNew     12
 CISAX will form    12 AO SS matrices at one time.
 NMat=    12 NSing=    12 JSym2X= 0.
 Root      1 not converged, maximum delta is    0.001530413395016
 Root      2 not converged, maximum delta is    0.000187660733534
 Root      3 not converged, maximum delta is    0.000174752431267
 Root      4 not converged, maximum delta is    0.001885614877727
 Root      5 not converged, maximum delta is    0.003482753111129
 Root      6 not converged, maximum delta is    0.011146581167509
 Excitation Energies [eV] at current iteration:
 Root      1 :     3.111890198914922   Change is   -0.000358962501398
 Root      2 :     3.985624689187646   Change is   -0.000012889774088
 Root      3 :     4.145799358263304   Change is   -0.000016684678863
 Root      4 :     4.938806246310828   Change is   -0.001093524243741
 Root      5 :     5.396344345231443   Change is   -0.001127677946083
 Root      6 :     5.846330033035836   Change is   -0.000475855132880
 Iteration     5 Dimension    54 NMult    42 NNew     12
 CISAX will form    12 AO SS matrices at one time.
 NMat=    12 NSing=    12 JSym2X= 0.
 Root      1 not converged, maximum delta is    0.000476262123653
 Root      2 not converged, maximum delta is    0.000086248873560
 Root      3 not converged, maximum delta is    0.000086529427418
 Root      4 not converged, maximum delta is    0.000646238942561
 Root      5 not converged, maximum delta is    0.000599679220055
 Root      6 not converged, maximum delta is    0.004385751274544
 Excitation Energies [eV] at current iteration:
 Root      1 :     3.111865492568339   Change is   -0.000024706346583
 Root      2 :     3.985623879630985   Change is   -0.000000809556660
 Root      3 :     4.145798010703566   Change is   -0.000001347559738
 Root      4 :     4.938707021736998   Change is   -0.000099224573830
 Root      5 :     5.396223213924483   Change is   -0.000121131306960
 Root      6 :     5.846229783589163   Change is   -0.000100249446674
 Iteration     6 Dimension    66 NMult    54 NNew     12
 CISAX will form    12 AO SS matrices at one time.
 NMat=    12 NSing=    12 JSym2X= 0.
 Root      1 not converged, maximum delta is    0.000056159176409
 Root      2 not converged, maximum delta is    0.000025818775836
 Root      3 not converged, maximum delta is    0.000025179362029
 Root      4 not converged, maximum delta is    0.000293485502202
 Root      5 not converged, maximum delta is    0.000302530038247
 Root      6 not converged, maximum delta is    0.000742515534363
 Excitation Energies [eV] at current iteration:
 Root      1 :     3.111863935095411   Change is   -0.000001557472928
 Root      2 :     3.985623797961352   Change is   -0.000000081669634
 Root      3 :     4.145797894281522   Change is   -0.000000116422045
 Root      4 :     4.938697110383167   Change is   -0.000009911353831
 Root      5 :     5.396209574869132   Change is   -0.000013639055350
 Root      6 :     5.846218636015759   Change is   -0.000011147573403
 Iteration     7 Dimension    78 NMult    66 NNew     12
 CISAX will form    12 AO SS matrices at one time.
 NMat=    12 NSing=    12 JSym2X= 0.
 Root      1 not converged, maximum delta is    0.000009294143002
 Root      2 not converged, maximum delta is    0.000004935114858
 Root      3 not converged, maximum delta is    0.000005658688503
 Root      4 not converged, maximum delta is    0.000109258619845
 Root      5 not converged, maximum delta is    0.000121367854195
 Root      6 not converged, maximum delta is    0.000102195793497
 Excitation Energies [eV] at current iteration:
 Root      1 :     3.111863881254583   Change is   -0.000000053840828
 Root      2 :     3.985623793918406   Change is   -0.000000004042945
 Root      3 :     4.145797887467721   Change is   -0.000000006813800
 Root      4 :     4.938696179720298   Change is   -0.000000930662869
 Root      5 :     5.396208156222995   Change is   -0.000001418646137
 Root      6 :     5.846217388329298   Change is   -0.000001247686462
 Iteration     8 Dimension    90 NMult    78 NNew     12
 CISAX will form    12 AO SS matrices at one time.
 NMat=    12 NSing=    12 JSym2X= 0.
 Root      1 not converged, maximum delta is    0.000002180439083
 Root      2 not converged, maximum delta is    0.000001381199489
 Root      3 has converged.
 Root      4 not converged, maximum delta is    0.000016210807065
 Root      5 not converged, maximum delta is    0.000030635071382
 Root      6 not converged, maximum delta is    0.000044476527341
 Excitation Energies [eV] at current iteration:
 Root      1 :     3.111863879085631   Change is   -0.000000002168952
 Root      2 :     3.985623793757523   Change is   -0.000000000160883
 Root      3 :     4.145797887071060   Change is   -0.000000000396661
 Root      4 :     4.938696118167750   Change is   -0.000000061552549
 Root      5 :     5.396208029082472   Change is   -0.000000127140522
 Root      6 :     5.846217240613845   Change is   -0.000000147715453
 Iteration     9 Dimension   100 NMult    90 NNew     10
 CISAX will form    10 AO SS matrices at one time.
 NMat=    10 NSing=    10 JSym2X= 0.
 Root      1 has converged.
 Root      2 has converged.
 Root      3 has converged.
 Root      4 not converged, maximum delta is    0.000003536772994
 Root      5 not converged, maximum delta is    0.000008963808787
 Root      6 not converged, maximum delta is    0.000016830958159
 Excitation Energies [eV] at current iteration:
 Root      1 :     3.111863878992641   Change is   -0.000000000092990
 Root      2 :     3.985623793749809   Change is   -0.000000000007714
 Root      3 :     4.145797887059242   Change is   -0.000000000011818
 Root      4 :     4.938696114421759   Change is   -0.000000003745990
 Root      5 :     5.396208019504996   Change is   -0.000000009577477
 Root      6 :     5.846217223696796   Change is   -0.000000016917048
 Iteration    10 Dimension   106 NMult   100 NNew      6
 CISAX will form     6 AO SS matrices at one time.
 NMat=     6 NSing=     6 JSym2X= 0.
 Root      1 has converged.
 Root      2 has converged.
 Root      3 has converged.
 Root      4 not converged, maximum delta is    0.000001347860388
 Root      5 not converged, maximum delta is    0.000003008893435
 Root      6 not converged, maximum delta is    0.000005505666722
 Excitation Energies [eV] at current iteration:
 Root      1 :     3.111863878991215   Change is   -0.000000000001426
 Root      2 :     3.985623793749603   Change is   -0.000000000000206
 Root      3 :     4.145797887058547   Change is   -0.000000000000694
 Root      4 :     4.938696114191201   Change is   -0.000000000230558
 Root      5 :     5.396208018742503   Change is   -0.000000000762493
 Root      6 :     5.846217222096439   Change is   -0.000000001600357
 Iteration    11 Dimension   112 NMult   106 NNew      6
 CISAX will form     6 AO SS matrices at one time.
 NMat=     6 NSing=     6 JSym2X= 0.
 Root      1 has converged.
 Root      2 has converged.
 Root      3 has converged.
 Root      4 has converged.
 Root      5 has converged.
 Root      6 not converged, maximum delta is    0.000001794162181
 Excitation Energies [eV] at current iteration:
 Root      1 :     3.111863878990977   Change is   -0.000000000000238
 Root      2 :     3.985623793749499   Change is   -0.000000000000103
 Root      3 :     4.145797887058230   Change is   -0.000000000000317
 Root      4 :     4.938696114176437   Change is   -0.000000000014765
 Root      5 :     5.396208018681856   Change is   -0.000000000060648
 Root      6 :     5.846217221940355   Change is   -0.000000000156084
 Iteration    12 Dimension   114 NMult   112 NNew      2
 CISAX will form     2 AO SS matrices at one time.
 NMat=     2 NSing=     2 JSym2X= 0.
 Root      1 has converged.
 Root      2 has converged.
 Root      3 has converged.
 Root      4 has converged.
 Root      5 has converged.
 Root      6 has converged.
 Excitation Energies [eV] at current iteration:
 Root      1 :     3.111863878990977   Change is    0.000000000000000
 Root      2 :     3.985623793749479   Change is   -0.000000000000020
 Root      3 :     4.145797887057992   Change is   -0.000000000000238
 Root      4 :     4.938696114176353   Change is   -0.000000000000083
 Root      5 :     5.396208018681733   Change is   -0.000000000000122
 Root      6 :     5.846217221925984   Change is   -0.000000000014371
 Convergence achieved on expansion vectors.
 ***********************************************************************
 Excited states from <AA,BB:AA,BB> singles matrix:
 ***********************************************************************
 
 1PDM for each excited state written to RWF  633
 Ground to excited state transition densities written to RWF  633
 Ground to excited state transition electric dipole moments (Au):
       state          X           Y           Z        Dip. S.      Osc.
         1        -1.6249      0.1875      0.0503      2.6781      0.2042
         2        -0.0564     -0.0320      0.0388      0.0057      0.0006
         3        -0.0460      0.1230     -0.0278      0.0180      0.0018
         4        -0.1949     -1.7353      0.0820      3.0561      0.3698
         5        -0.0650     -1.5241      0.0099      2.3271      0.3077
         6         0.0232      0.2270      0.0518      0.0547      0.0078
 Ground to excited state transition velocity dipole moments (Au):
       state          X           Y           Z        Dip. S.      Osc.
         1         0.1783     -0.0170     -0.0062      0.0321      0.1873
         2         0.0078      0.0050     -0.0026      0.0001      0.0004
         3         0.0066     -0.0167      0.0008      0.0003      0.0014
         4         0.0393      0.3013     -0.0113      0.0925      0.3396
         5         0.0134      0.2964     -0.0030      0.0880      0.2959
         6        -0.0060     -0.0461     -0.0310      0.0031      0.0097
 Ground to excited state transition magnetic dipole moments (Au):
       state          X           Y           Z
         1        -0.0396      0.0431     -1.4687
         2         0.7955     -0.1174     -0.1811
         3         0.1853     -0.9808     -0.2098
         4         0.0363     -0.0813      0.0719
         5         0.1436     -0.1032      0.2849
         6         0.0244     -0.0132      0.0280
 Ground to excited state transition velocity quadrupole moments (Au):
       state          XX          YY          ZZ          XY          XZ          YZ
         1        -0.1688      0.0935      0.0049     -0.5058      0.0405      0.0169
         2         0.0166     -0.0079     -0.0061     -0.0260      0.0102      0.0808
         3        -0.0113      0.0001      0.0218     -0.0625      0.0639      0.0101
         4        -1.3135      0.2875      0.0071      0.0759      0.0799     -0.0375
         5        -0.4771      0.2812      0.0402      0.2321      0.0644      0.0163
         6        -0.1693     -0.1704      0.1463      0.0155      0.0303      0.0934
 <0|del|b> * <b|rxdel|0> + <0|del|b> * <b|delr+rdel|0>
 Rotatory Strengths (R) in cgs (10**-40 erg-esu-cm/Gauss)
       state          XX          YY          ZZ    R(velocity)    E-M Angle
         1        37.7988      5.9786    -35.5626      2.7383       89.71
         2        -0.2286     17.4865     12.1548      9.8042       39.99
         3        40.0644      2.7190     38.2976     27.0270       18.01
         4       -97.8707     -0.0066      4.8590    -31.0061      133.33
         5       -91.3161      3.5364    -17.4792    -35.0863      107.26
         6         1.0740     -1.8088     -0.6148     -0.4499      100.73
 1/2[<0|r|b>*<b|rxdel|0> + (<0|rxdel|b>*<b|r|0>)*]
 Rotatory Strengths (R) in cgs (10**-40 erg-esu-cm/Gauss)
       state          XX          YY          ZZ     R(length)
         1       -45.5229     -5.7156     52.2277      0.3297
         2        31.7049     -2.6532      4.9683     11.3400
         3         6.0293     85.3392     -4.1203     29.0827
         4         4.9987    -99.7227     -4.1694    -32.9645
         5         6.5974   -111.2144     -1.9991    -35.5387
         6        -0.4011      2.1125     -1.0274      0.2280
  1/2[<0|del|b>*<b|r|0> + (<0|r|b>*<b|del|0>)*] (Au)
       state          X           Y           Z        Dip. S.   Osc.(frdel)
         1        -0.2898     -0.0032     -0.0003      0.2933      0.1955
         2        -0.0004     -0.0002     -0.0001      0.0007      0.0005
         3        -0.0003     -0.0021     -0.0000      0.0024      0.0016
         4        -0.0077     -0.5229     -0.0009      0.5315      0.3543
         5        -0.0009     -0.4517     -0.0000      0.4526      0.3017
         6        -0.0001     -0.0105     -0.0016      0.0122      0.0081

 Excitation energies and oscillator strengths:
 
 Excited State   1:      Singlet-A      3.1119 eV  398.42 nm  f=0.2042  <S**2>=0.000
      52 -> 53         0.70089
 
 Excited State   2:      Singlet-A      3.9856 eV  311.08 nm  f=0.0006  <S**2>=0.000
      50 -> 54         0.17781
      51 -> 53         0.58028
      51 -> 54         0.31978
 This state for optimization and/or second-order correction.
 Total Energy, E(TD-HF/TD-DFT) =  -633.178356238    
 Copying the excited state density for this state as the 1-particle RhoCI density.
 
 Excited State   3:      Singlet-A      4.1458 eV  299.06 nm  f=0.0018  <S**2>=0.000
      49 -> 53         0.23185
      49 -> 54        -0.14287
      50 -> 53         0.54054
      50 -> 54        -0.25139
      50 -> 58         0.11352
      51 -> 54         0.20176
 
 Excited State   4:      Singlet-A      4.9387 eV  251.05 nm  f=0.3698  <S**2>=0.000
      52 -> 54         0.69544
 
 Excited State   5:      Singlet-A      5.3962 eV  229.76 nm  f=0.3077  <S**2>=0.000
      49 -> 53         0.62502
      50 -> 53        -0.27253
      51 -> 53         0.10637
 
 Excited State   6:      Singlet-A      5.8462 eV  212.08 nm  f=0.0078  <S**2>=0.000
      52 -> 55         0.65207
      52 -> 56         0.16633
      52 -> 57         0.10778
 SavETr:  write IOETrn=   770 NScale= 10 NData=  16 NLR=1 NState=    6 LETran=     118.
 The selected state is a singlet.
 CISGrd: IGrad=1 NXY=2 DFT=T
 CISAX will form     1 AO SS matrices at one time.
 NMat=     1 NSing=     1 JSym2X= 0.
 Leave Link  914 at Fri Jan 23 19:09:18 2026, MaxMem=  2147483648 cpu:            7686.6 elap:             482.1
 (Enter /data/home/wyx/g16/l1002.exe)
 Minotr:  Closed shell wavefunction.
          Computing CIS/TDA/TD derivatives.
          Using Z-Vector for PSCF gradient.
          Skipping F1 and S1 gradient terms here.
 NEqPCM:  Using equilibrium solvation (IEInf=0, Eps=   7.4257, EpsInf=   1.9740)
          Frozen-core window.
          Direct CPHF calculation.
          Differentiating once with respect to electric field.
                with respect to dipole field.
          Electric field/nuclear overlap derivatives assumed to be zero.
          Requested convergence is 1.0D-10 RMS, and 1.0D-09 maximum.
          NewPWx=F KeepS1=T KeepF1=T KeepIn=T MapXYZ=F SortEE=F KeepMc=T.
 Two-electron integral symmetry used by symmetrizing perturbed Fock matrices.
          MDV=    2147483648 using IRadAn=       5.
          Solving linear equations separately, MaxMat=     384.
          There are     1 degrees of freedom in the 1st order CPHF.  IDoFFX=0 NUNeed=     1.
 FoFJK:  IHMeth= 1 ICntrl=       0 DoSepK=T KAlg= 0 I1Cent=           0 FoldK=F
 IRaf=         1 NMat=       1 IRICut=       1 DoRegI=T DoRafI=F ISym2E=-1 IDoP0=0 IntGTp=1.
 FoFCou: FMM=F IPFlag=           0 FMFlag=      100000 FMFlg1=           0
         NFxFlg=           0 DoJE=T BraDBF=F KetDBF=F FulRan=T
         wScrn=  0.000000 ICntrl=       500 IOpCl=  0 I1Cent=           0 NGrid=           0
         NMat0=    1 NMatS0=      1 NMatT0=    0 NMatD0=    1 NMtDS0=    0 NMtDT0=    0
 Petite list used in FoFCou.
 LinEq1:  Iter=  0 NonCon=     1 RMS=8.11D-03 Max=3.60D-01 NDo=     1
 AX will form     1 AO Fock derivatives at one time.
 LinEq1:  Iter=  1 NonCon=     1 RMS=2.22D-03 Max=1.03D-01 NDo=     1
 LinEq1:  Iter=  2 NonCon=     1 RMS=1.55D-03 Max=8.96D-02 NDo=     1
 LinEq1:  Iter=  3 NonCon=     1 RMS=6.45D-04 Max=3.51D-02 NDo=     1
 LinEq1:  Iter=  4 NonCon=     1 RMS=3.37D-04 Max=1.28D-02 NDo=     1
 LinEq1:  Iter=  5 NonCon=     1 RMS=1.76D-04 Max=9.11D-03 NDo=     1
 LinEq1:  Iter=  6 NonCon=     1 RMS=8.93D-05 Max=2.97D-03 NDo=     1
 LinEq1:  Iter=  7 NonCon=     1 RMS=5.27D-05 Max=2.45D-03 NDo=     1
 LinEq1:  Iter=  8 NonCon=     1 RMS=2.48D-05 Max=8.87D-04 NDo=     1
 LinEq1:  Iter=  9 NonCon=     1 RMS=1.81D-05 Max=8.67D-04 NDo=     1
 LinEq1:  Iter= 10 NonCon=     1 RMS=7.42D-06 Max=1.96D-04 NDo=     1
 LinEq1:  Iter= 11 NonCon=     1 RMS=4.12D-06 Max=1.44D-04 NDo=     1
 LinEq1:  Iter= 12 NonCon=     1 RMS=1.26D-06 Max=3.69D-05 NDo=     1
 LinEq1:  Iter= 13 NonCon=     1 RMS=6.03D-07 Max=1.36D-05 NDo=     1
 LinEq1:  Iter= 14 NonCon=     1 RMS=2.23D-07 Max=5.43D-06 NDo=     1
 LinEq1:  Iter= 15 NonCon=     1 RMS=9.14D-08 Max=3.01D-06 NDo=     1
 LinEq1:  Iter= 16 NonCon=     1 RMS=3.71D-08 Max=1.77D-06 NDo=     1
 LinEq1:  Iter= 17 NonCon=     1 RMS=1.46D-08 Max=6.47D-07 NDo=     1
 LinEq1:  Iter= 18 NonCon=     1 RMS=5.94D-09 Max=1.71D-07 NDo=     1
 LinEq1:  Iter= 19 NonCon=     1 RMS=1.82D-09 Max=3.62D-08 NDo=     1
 LinEq1:  Iter= 20 NonCon=     1 RMS=5.41D-10 Max=1.75D-08 NDo=     1
 LinEq1:  Iter= 21 NonCon=     1 RMS=2.08D-10 Max=4.17D-09 NDo=     1
 LinEq1:  Iter= 22 NonCon=     1 RMS=8.63D-11 Max=2.01D-09 NDo=     1
 LinEq1:  Iter= 23 NonCon=     0 RMS=2.31D-11 Max=4.18D-10 NDo=     1
 Linear equations converged to 1.000D-10 1.000D-09 after    23 iterations.
 PCM Corrected Linear-Response - Equilibrium solvation:
 Corrected transition energy               =    3.9096          eV
 Total energy after correction             = -633.181151142     a.u.
 NEqPCM:  Using non-equilibrium solvation (IEInf=1, Eps=   7.4257, EpsInf=   1.9740)
 Inv3:  Mode=1 IEnd=    13534128.
 Iteration    1 A*A^-1 deviation from unit magnitude is 3.44D-15 for    381.
 Iteration    1 A*A^-1 deviation from orthogonality  is 1.67D-15 for   1994    411.
 Iteration    1 A^-1*A deviation from unit magnitude is 3.11D-15 for    193.
 Iteration    1 A^-1*A deviation from orthogonality  is 1.69D-15 for   1093    945.
 NEqSol: Computing the dynamic-inertial partition of the PCM polarization charges.
 End of Minotr F.D. properties file   721 does not exist.
 End of Minotr F.D. properties file   722 does not exist.
 End of Minotr F.D. properties file   788 does not exist.
 Leave Link 1002 at Fri Jan 23 19:11:19 2026, MaxMem=  2147483648 cpu:            1906.5 elap:             120.0
 (Enter /data/home/wyx/g16/l601.exe)
 Copying SCF densities to generalized density rwf, IOpCl= 0 IROHF=0.

 **********************************************************************

            Population analysis using the CI density.

 **********************************************************************

 Orbital symmetries:
       Occupied  (A) (A) (A) (A) (A) (A) (A) (A) (A) (A) (A) (A)
                 (A) (A) (A) (A) (A) (A) (A) (A) (A) (A) (A) (A)
                 (A) (A) (A) (A) (A) (A) (A) (A) (A) (A) (A) (A)
                 (A) (A) (A) (A) (A) (A) (A) (A) (A) (A) (A) (A)
                 (A) (A) (A) (A)
       Virtual   (A) (A) (A) (A) (A) (A) (A) (A) (A) (A) (A) (A)
                 (A) (A) (A) (A) (A) (A) (A) (A) (A) (A) (A) (A)
                 (A) (A) (A) (A) (A) (A) (A) (A) (A) (A) (A) (A)
                 (A) (A) (A) (A) (A) (A) (A) (A) (A) (A) (A) (A)
                 (A) (A) (A) (A) (A) (A) (A) (A) (A) (A) (A) (A)
                 (A) (A) (A) (A) (A) (A) (A) (A) (A) (A) (A) (A)
                 (A) (A) (A) (A) (A) (A) (A) (A) (A) (A) (A) (A)
                 (A) (A) (A) (A) (A) (A) (A) (A) (A) (A) (A) (A)
                 (A) (A) (A) (A) (A) (A) (A) (A) (A) (A) (A) (A)
                 (A) (A) (A) (A) (A) (A) (A) (A) (A) (A) (A) (A)
                 (A) (A) (A) (A) (A) (A) (A) (A) (A) (A) (A) (A)
                 (A) (A) (A) (A) (A) (A) (A) (A) (A) (A) (A) (A)
                 (A) (A) (A) (A) (A) (A) (A) (A) (A) (A) (A) (A)
                 (A) (A) (A) (A) (A) (A) (A) (A) (A) (A) (A) (A)
                 (A) (A) (A) (A) (A) (A) (A) (A) (A) (A) (A) (A)
                 (A) (A) (A) (A) (A) (A) (A) (A) (A) (A) (A) (A)
                 (A) (A) (A) (A) (A) (A) (A) (A) (A) (A) (A) (A)
                 (A) (A) (A) (A) (A) (A) (A) (A) (A) (A) (A) (A)
                 (A) (A) (A) (A) (A) (A) (A) (A) (A) (A) (A) (A)
                 (A) (A) (A) (A) (A) (A) (A) (A) (A) (A) (A) (A)
                 (A) (A) (A) (A) (A) (A) (A) (A) (A) (A) (A) (A)
                 (A) (A) (A) (A) (A) (A) (A) (A) (A) (A) (A) (A)
                 (A) (A) (A) (A) (A) (A) (A) (A) (A) (A) (A) (A)
                 (A) (A) (A) (A) (A) (A) (A) (A) (A) (A) (A) (A)
                 (A) (A) (A) (A) (A) (A) (A) (A) (A) (A) (A) (A)
                 (A) (A) (A) (A)
 The electronic state is 1-A.
 Alpha  occ. eigenvalues --  -19.17813 -19.17020 -14.44557 -10.33363 -10.32813
 Alpha  occ. eigenvalues --  -10.32557 -10.31937 -10.26106 -10.25270 -10.24938
 Alpha  occ. eigenvalues --  -10.24599 -10.24534 -10.24230 -10.23568  -1.11613
 Alpha  occ. eigenvalues --   -1.11116  -1.08206  -0.91424  -0.90465  -0.83951
 Alpha  occ. eigenvalues --   -0.82671  -0.81695  -0.78571  -0.73932  -0.71874
 Alpha  occ. eigenvalues --   -0.68680  -0.61632  -0.58315  -0.56963  -0.55192
 Alpha  occ. eigenvalues --   -0.54662  -0.54019  -0.52574  -0.51855  -0.50866
 Alpha  occ. eigenvalues --   -0.49800  -0.49541  -0.49276  -0.48670  -0.48095
 Alpha  occ. eigenvalues --   -0.47099  -0.45266  -0.45191  -0.43815  -0.43204
 Alpha  occ. eigenvalues --   -0.42252  -0.42179  -0.41673  -0.32688  -0.32178
 Alpha  occ. eigenvalues --   -0.31147  -0.25455
 Alpha virt. eigenvalues --   -0.02918   0.02575   0.06253   0.08038   0.08428
 Alpha virt. eigenvalues --    0.09854   0.10727   0.11718   0.12552   0.13473
 Alpha virt. eigenvalues --    0.13929   0.14843   0.15600   0.16289   0.16930
 Alpha virt. eigenvalues --    0.17531   0.17846   0.18071   0.18249   0.19215
 Alpha virt. eigenvalues --    0.19902   0.22070   0.22824   0.23489   0.23818
 Alpha virt. eigenvalues --    0.23926   0.24792   0.25637   0.26198   0.26630
 Alpha virt. eigenvalues --    0.27151   0.27870   0.28696   0.29191   0.30122
 Alpha virt. eigenvalues --    0.31718   0.31938   0.32426   0.33492   0.34436
 Alpha virt. eigenvalues --    0.34881   0.35968   0.36686   0.38102   0.38476
 Alpha virt. eigenvalues --    0.39768   0.41033   0.41446   0.41945   0.42552
 Alpha virt. eigenvalues --    0.44028   0.44676   0.45562   0.46210   0.46388
 Alpha virt. eigenvalues --    0.47309   0.47753   0.48034   0.48331   0.49155
 Alpha virt. eigenvalues --    0.49525   0.50598   0.51103   0.51456   0.51612
 Alpha virt. eigenvalues --    0.52735   0.52980   0.53391   0.53840   0.54253
 Alpha virt. eigenvalues --    0.54478   0.55534   0.56049   0.56697   0.58338
 Alpha virt. eigenvalues --    0.58529   0.59658   0.61011   0.61305   0.62941
 Alpha virt. eigenvalues --    0.63796   0.65481   0.66442   0.66646   0.67834
 Alpha virt. eigenvalues --    0.68622   0.69766   0.71098   0.71748   0.72365
 Alpha virt. eigenvalues --    0.73185   0.74282   0.74857   0.75889   0.77793
 Alpha virt. eigenvalues --    0.78908   0.80037   0.82917   0.85879   0.86863
 Alpha virt. eigenvalues --    0.90500   0.94638   1.01521   1.03360   1.22836
 Alpha virt. eigenvalues --    1.24859   1.27172   1.28198   1.29433   1.30993
 Alpha virt. eigenvalues --    1.32378   1.32866   1.34221   1.34929   1.36196
 Alpha virt. eigenvalues --    1.36533   1.37641   1.38430   1.38970   1.39867
 Alpha virt. eigenvalues --    1.39908   1.40579   1.40725   1.41361   1.41861
 Alpha virt. eigenvalues --    1.43492   1.43748   1.44261   1.45230   1.47362
 Alpha virt. eigenvalues --    1.48026   1.49552   1.49914   1.50321   1.50905
 Alpha virt. eigenvalues --    1.51323   1.52593   1.52658   1.55068   1.58134
 Alpha virt. eigenvalues --    1.58900   1.60534   1.60798   1.61444   1.62563
 Alpha virt. eigenvalues --    1.62704   1.63254   1.64118   1.64467   1.65880
 Alpha virt. eigenvalues --    1.66676   1.67111   1.67632   1.68089   1.68471
 Alpha virt. eigenvalues --    1.69005   1.69900   1.70131   1.71342   1.72401
 Alpha virt. eigenvalues --    1.73983   1.75036   1.75966   1.76612   1.78624
 Alpha virt. eigenvalues --    1.81056   1.82886   1.84083   1.86003   1.86568
 Alpha virt. eigenvalues --    1.86720   1.87947   1.88578   1.88932   1.90407
 Alpha virt. eigenvalues --    1.91246   1.94582   1.95103   1.98987   1.99776
 Alpha virt. eigenvalues --    2.01391   2.03921   2.05336   2.06815   2.09598
 Alpha virt. eigenvalues --    2.10741   2.12232   2.15364   2.17438   2.19708
 Alpha virt. eigenvalues --    2.20238   2.21339   2.22033   2.23033   2.26292
 Alpha virt. eigenvalues --    2.27247   2.27589   2.29382   2.31349   2.32351
 Alpha virt. eigenvalues --    2.33878   2.34321   2.36884   2.37960   2.38739
 Alpha virt. eigenvalues --    2.39607   2.40317   2.41555   2.43050   2.45031
 Alpha virt. eigenvalues --    2.46055   2.48011   2.49787   2.50427   2.51332
 Alpha virt. eigenvalues --    2.52342   2.54147   2.54908   2.56641   2.57797
 Alpha virt. eigenvalues --    2.58904   2.60781   2.61750   2.62604   2.63306
 Alpha virt. eigenvalues --    2.64659   2.65837   2.66738   2.67437   2.68600
 Alpha virt. eigenvalues --    2.71881   2.72103   2.73493   2.74440   2.75408
 Alpha virt. eigenvalues --    2.75957   2.76844   2.77364   2.78126   2.79219
 Alpha virt. eigenvalues --    2.80710   2.81995   2.83215   2.84140   2.84547
 Alpha virt. eigenvalues --    2.85595   2.86519   2.88619   2.89601   2.91960
 Alpha virt. eigenvalues --    2.97598   2.99409   3.00785   3.06075   3.10829
 Alpha virt. eigenvalues --    3.12431   3.15150   3.17506   3.18638   3.21455
 Alpha virt. eigenvalues --    3.21742   3.23796   3.24587   3.25961   3.27053
 Alpha virt. eigenvalues --    3.27981   3.30102   3.33103   3.34552   3.36666
 Alpha virt. eigenvalues --    3.37776   3.38881   3.39733   3.40107   3.41974
 Alpha virt. eigenvalues --    3.42316   3.44478   3.45317   3.47663   3.48419
 Alpha virt. eigenvalues --    3.49529   3.49966   3.55489   3.58558   3.60124
 Alpha virt. eigenvalues --    3.60944   3.90901   4.00518   4.33760   4.36550
 Alpha virt. eigenvalues --   21.66468  21.80571  22.08349  22.10775  22.11842
 Alpha virt. eigenvalues --   22.15071  22.15331  22.18834  22.19828  22.24897
 Alpha virt. eigenvalues --   22.28585  31.91990  43.63745  43.66518
          Condensed to atoms (all electrons):
               1          2          3          4          5          6
     1  O    7.958854   0.000000  -0.000192   0.000020   0.018667   0.012593
     2  O    0.000000   7.975715   0.000780   0.000024  -0.103194   0.000255
     3  N   -0.000192   0.000780   6.372441   0.370409  -0.094449   0.380406
     4  H    0.000020   0.000024   0.370409   0.422339   0.017394  -0.047579
     5  C    0.018667  -0.103194  -0.094449   0.017394   6.095020  -0.087291
     6  C    0.012593   0.000255   0.380406  -0.047579  -0.087291   5.593877
     7  C   -0.000440   0.004425   0.331634  -0.040117   0.327280  -0.122705
     8  C   -0.000164   0.320255   0.014259  -0.001064   0.324843   0.018519
     9  C   -0.011081   0.011135   0.002308  -0.000098  -0.448064  -0.059559
    10  H    0.011728   0.000012  -0.001125   0.000026  -0.112531   0.026490
    11  H    0.007173   0.000008   0.004225   0.000035  -0.041437  -0.020353
    12  C   -0.237967  -0.000876  -0.098277   0.015843   0.195682  -0.115098
    13  C    0.702303   0.000031   0.000854   0.000553   0.083920   0.135795
    14  C   -0.000007   0.011996  -0.029648  -0.009318  -0.098685   0.013858
    15  H    0.000000   0.000840   0.004069   0.002707   0.017136   0.004041
    16  H    0.000000  -0.002228   0.000195   0.000680   0.002173  -0.001443
    17  H   -0.000000  -0.002368  -0.001589   0.000752   0.000342  -0.000918
    18  C    0.000211  -0.049126  -0.000341   0.000018  -0.025755  -0.000336
    19  H   -0.000002   0.001290  -0.000002  -0.000001   0.011153   0.000102
    20  H    0.000045   0.002319   0.000043   0.000001  -0.009234  -0.000555
    21  H   -0.000092   0.002652  -0.000022  -0.000000  -0.018832  -0.000091
    22  C   -0.105226   0.000000  -0.000110   0.000128   0.004539  -0.017047
    23  H    0.001794  -0.000000   0.000003  -0.000014  -0.000043   0.010039
    24  H    0.004966  -0.000000   0.000111  -0.000056  -0.000700  -0.026903
    25  H    0.007361  -0.000000   0.000031  -0.000003  -0.000170  -0.001015
    26  C    0.000760   0.000002  -0.030029  -0.007004  -0.002601   0.177356
    27  H   -0.000051   0.000000  -0.003484   0.000525   0.000457  -0.035216
    28  H   -0.000316  -0.000000   0.001260   0.000789  -0.000139  -0.057910
    29  H    0.000027  -0.000000   0.001684   0.001910  -0.000310  -0.048292
               7          8          9         10         11         12
     1  O   -0.000440  -0.000164  -0.011081   0.011728   0.007173  -0.237967
     2  O    0.004425   0.320255   0.011135   0.000012   0.000008  -0.000876
     3  N    0.331634   0.014259   0.002308  -0.001125   0.004225  -0.098277
     4  H   -0.040117  -0.001064  -0.000098   0.000026   0.000035   0.015843
     5  C    0.327280   0.324843  -0.448064  -0.112531  -0.041437   0.195682
     6  C   -0.122705   0.018519  -0.059559   0.026490  -0.020353  -0.115098
     7  C    5.496364  -0.128287  -0.068567   0.016654  -0.009833  -0.013879
     8  C   -0.128287   5.360252  -0.019813  -0.013651  -0.003201  -0.016828
     9  C   -0.068567  -0.019813   6.402524   0.538835   0.397233  -0.194011
    10  H    0.016654  -0.013651   0.538835   0.531561  -0.048130  -0.113245
    11  H   -0.009833  -0.003201   0.397233  -0.048130   0.579449  -0.006440
    12  C   -0.013879  -0.016828  -0.194011  -0.113245  -0.006440   7.442788
    13  C    0.010777  -0.003533  -0.267224  -0.000088  -0.001889  -0.402164
    14  C    0.220405  -0.017787   0.015276   0.000570  -0.001034  -0.005631
    15  H   -0.060860   0.000806  -0.000852  -0.000002   0.000052  -0.000250
    16  H   -0.052789  -0.010630  -0.000614  -0.000057   0.000168   0.000425
    17  H   -0.048124  -0.006169   0.001147   0.000063  -0.000066   0.000071
    18  C    0.012821   0.198237  -0.028544   0.010184  -0.013530  -0.002964
    19  H   -0.000314  -0.048439   0.002470   0.000653  -0.000246  -0.000956
    20  H    0.000862  -0.036523   0.004992  -0.007099   0.003545   0.002574
    21  H   -0.000712  -0.047861  -0.009197  -0.001395   0.001380   0.002801
    22  C   -0.000005  -0.000026   0.002615  -0.000393   0.002833  -0.257184
    23  H    0.000016  -0.000001  -0.002705  -0.000138   0.000185  -0.011394
    24  H   -0.000018  -0.000001   0.003264   0.000019  -0.000180   0.064469
    25  H    0.000012   0.000001   0.000816  -0.000047  -0.000099   0.020844
    26  C    0.003571   0.000394   0.030512   0.000114  -0.001010  -0.092379
    27  H    0.000089  -0.000025  -0.001791   0.000042  -0.000003  -0.015624
    28  H   -0.000837   0.000002   0.001633   0.000019  -0.000150  -0.004110
    29  H    0.003488  -0.000008  -0.001156  -0.000015   0.000109   0.022445
              13         14         15         16         17         18
     1  O    0.702303  -0.000007   0.000000   0.000000  -0.000000   0.000211
     2  O    0.000031   0.011996   0.000840  -0.002228  -0.002368  -0.049126
     3  N    0.000854  -0.029648   0.004069   0.000195  -0.001589  -0.000341
     4  H    0.000553  -0.009318   0.002707   0.000680   0.000752   0.000018
     5  C    0.083920  -0.098685   0.017136   0.002173   0.000342  -0.025755
     6  C    0.135795   0.013858   0.004041  -0.001443  -0.000918  -0.000336
     7  C    0.010777   0.220405  -0.060860  -0.052789  -0.048124   0.012821
     8  C   -0.003533  -0.017787   0.000806  -0.010630  -0.006169   0.198237
     9  C   -0.267224   0.015276  -0.000852  -0.000614   0.001147  -0.028544
    10  H   -0.000088   0.000570  -0.000002  -0.000057   0.000063   0.010184
    11  H   -0.001889  -0.001034   0.000052   0.000168  -0.000066  -0.013530
    12  C   -0.402164  -0.005631  -0.000250   0.000425   0.000071  -0.002964
    13  C    5.515294  -0.000124   0.000007   0.000002  -0.000012   0.000904
    14  C   -0.000124   5.102481   0.398414   0.440485   0.427423   0.002055
    15  H    0.000007   0.398414   0.545222  -0.022675  -0.022112   0.000013
    16  H    0.000002   0.440485  -0.022675   0.517330  -0.035185  -0.000415
    17  H   -0.000012   0.427423  -0.022112  -0.035185   0.521623  -0.000531
    18  C    0.000904   0.002055   0.000013  -0.000415  -0.000531   5.088492
    19  H   -0.000044   0.000057   0.000003   0.000030   0.000026   0.398735
    20  H    0.000161  -0.000209  -0.000002   0.000006   0.000026   0.407919
    21  H   -0.000010  -0.000280   0.000000   0.000010  -0.000035   0.429670
    22  C    0.284322  -0.000019   0.000002  -0.000000  -0.000000   0.000009
    23  H   -0.026972  -0.000001   0.000000  -0.000000  -0.000000  -0.000002
    24  H   -0.095430   0.000002  -0.000000   0.000000   0.000000   0.000002
    25  H   -0.037671   0.000001  -0.000000  -0.000000  -0.000000  -0.000000
    26  C   -0.052643   0.001154  -0.000006   0.000028  -0.000063   0.000020
    27  H    0.006599  -0.000151   0.000003   0.000003  -0.000013  -0.000001
    28  H   -0.003339   0.000075  -0.000011  -0.000001   0.000002   0.000001
    29  H   -0.000784  -0.000224   0.000103  -0.000006   0.000001  -0.000000
              19         20         21         22         23         24
     1  O   -0.000002   0.000045  -0.000092  -0.105226   0.001794   0.004966
     2  O    0.001290   0.002319   0.002652   0.000000  -0.000000  -0.000000
     3  N   -0.000002   0.000043  -0.000022  -0.000110   0.000003   0.000111
     4  H   -0.000001   0.000001  -0.000000   0.000128  -0.000014  -0.000056
     5  C    0.011153  -0.009234  -0.018832   0.004539  -0.000043  -0.000700
     6  C    0.000102  -0.000555  -0.000091  -0.017047   0.010039  -0.026903
     7  C   -0.000314   0.000862  -0.000712  -0.000005   0.000016  -0.000018
     8  C   -0.048439  -0.036523  -0.047861  -0.000026  -0.000001  -0.000001
     9  C    0.002470   0.004992  -0.009197   0.002615  -0.002705   0.003264
    10  H    0.000653  -0.007099  -0.001395  -0.000393  -0.000138   0.000019
    11  H   -0.000246   0.003545   0.001380   0.002833   0.000185  -0.000180
    12  C   -0.000956   0.002574   0.002801  -0.257184  -0.011394   0.064469
    13  C   -0.000044   0.000161  -0.000010   0.284322  -0.026972  -0.095430
    14  C    0.000057  -0.000209  -0.000280  -0.000019  -0.000001   0.000002
    15  H    0.000003  -0.000002   0.000000   0.000002   0.000000  -0.000000
    16  H    0.000030   0.000006   0.000010  -0.000000  -0.000000   0.000000
    17  H    0.000026   0.000026  -0.000035  -0.000000  -0.000000   0.000000
    18  C    0.398735   0.407919   0.429670   0.000009  -0.000002   0.000002
    19  H    0.519982  -0.019280  -0.029452  -0.000001  -0.000000   0.000000
    20  H   -0.019280   0.511386  -0.036209   0.000015   0.000000  -0.000000
    21  H   -0.029452  -0.036209   0.525998   0.000002   0.000000  -0.000000
    22  C   -0.000001   0.000015   0.000002   5.426101   0.404576   0.395804
    23  H   -0.000000   0.000000   0.000000   0.404576   0.504138  -0.028474
    24  H    0.000000  -0.000000  -0.000000   0.395804  -0.028474   0.548839
    25  H    0.000000   0.000000  -0.000001   0.381025  -0.010314  -0.021945
    26  C    0.000001  -0.000006  -0.000005  -0.032333  -0.011797   0.015347
    27  H   -0.000000  -0.000000   0.000001  -0.009975   0.001307  -0.002348
    28  H    0.000000   0.000000  -0.000000   0.004048  -0.001317  -0.007648
    29  H   -0.000000   0.000000   0.000000   0.002088   0.000202   0.000642
              25         26         27         28         29
     1  O    0.007361   0.000760  -0.000051  -0.000316   0.000027
     2  O   -0.000000   0.000002   0.000000  -0.000000  -0.000000
     3  N    0.000031  -0.030029  -0.003484   0.001260   0.001684
     4  H   -0.000003  -0.007004   0.000525   0.000789   0.001910
     5  C   -0.000170  -0.002601   0.000457  -0.000139  -0.000310
     6  C   -0.001015   0.177356  -0.035216  -0.057910  -0.048292
     7  C    0.000012   0.003571   0.000089  -0.000837   0.003488
     8  C    0.000001   0.000394  -0.000025   0.000002  -0.000008
     9  C    0.000816   0.030512  -0.001791   0.001633  -0.001156
    10  H   -0.000047   0.000114   0.000042   0.000019  -0.000015
    11  H   -0.000099  -0.001010  -0.000003  -0.000150   0.000109
    12  C    0.020844  -0.092379  -0.015624  -0.004110   0.022445
    13  C   -0.037671  -0.052643   0.006599  -0.003339  -0.000784
    14  C    0.000001   0.001154  -0.000151   0.000075  -0.000224
    15  H   -0.000000  -0.000006   0.000003  -0.000011   0.000103
    16  H   -0.000000   0.000028   0.000003  -0.000001  -0.000006
    17  H   -0.000000  -0.000063  -0.000013   0.000002   0.000001
    18  C   -0.000000   0.000020  -0.000001   0.000001  -0.000000
    19  H    0.000000   0.000001  -0.000000   0.000000  -0.000000
    20  H    0.000000  -0.000006  -0.000000   0.000000   0.000000
    21  H   -0.000001  -0.000005   0.000001  -0.000000   0.000000
    22  C    0.381025  -0.032333  -0.009975   0.004048   0.002088
    23  H   -0.010314  -0.011797   0.001307  -0.001317   0.000202
    24  H   -0.021945   0.015347  -0.002348  -0.007648   0.000642
    25  H    0.501365   0.001929   0.000020   0.000836  -0.000044
    26  C    0.001929   5.264003   0.422582   0.438052   0.387440
    27  H    0.000020   0.422582   0.499909  -0.031748  -0.018184
    28  H    0.000836   0.438052  -0.031748   0.520535  -0.026655
    29  H   -0.000044   0.387440  -0.018184  -0.026655   0.526894
 Mulliken charges:
               1
     1  O   -0.370964
     2  O   -0.173947
     3  N   -0.225445
     4  H    0.271101
     5  C   -0.055173
     6  C    0.268979
     7  C    0.119088
     8  C    0.116440
     9  C   -0.301482
    10  H    0.160946
    11  H    0.151208
    12  C   -0.178668
    13  C    0.150407
    14  C   -0.471134
    15  H    0.133351
    16  H    0.164508
    17  H    0.165708
    18  C   -0.427744
    19  H    0.164235
    20  H    0.175223
    21  H    0.181679
    22  C   -0.485790
    23  H    0.170910
    24  H    0.150236
    25  H    0.157067
    26  C   -0.513389
    27  H    0.187076
    28  H    0.166929
    29  H    0.148643
 Sum of Mulliken charges =  -0.00000
 Mulliken charges with hydrogens summed into heavy atoms:
               1
     1  O   -0.370964
     2  O   -0.173947
     3  N    0.045656
     5  C   -0.055173
     6  C    0.268979
     7  C    0.119088
     8  C    0.116440
     9  C    0.010672
    12  C   -0.178668
    13  C    0.150407
    14  C   -0.007566
    18  C    0.093392
    22  C   -0.007576
    26  C   -0.010741
 Electronic spatial extent (au):  <R**2>=           3189.7996
 Charge=              0.0000 electrons
 Dipole moment (field-independent basis, Debye):
    X=              0.0994    Y=              5.9596    Z=              0.3450  Tot=              5.9704
 Quadrupole moment (field-independent basis, Debye-Ang):
   XX=            -86.7918   YY=            -78.6210   ZZ=            -86.3110
   XY=             15.5553   XZ=              3.0689   YZ=             -1.8889
 Traceless Quadrupole moment (field-independent basis, Debye-Ang):
   XX=             -2.8838   YY=              5.2869   ZZ=             -2.4031
   XY=             15.5553   XZ=              3.0689   YZ=             -1.8889
 Octapole moment (field-independent basis, Debye-Ang**2):
  XXX=             42.1621  YYY=             53.7905  ZZZ=              1.6655  XYY=            -42.4972
  XXY=             17.7535  XXZ=             -0.4871  XZZ=              0.7987  YZZ=             -2.2163
  YYZ=              3.6066  XYZ=             -4.9939
 Hexadecapole moment (field-independent basis, Debye-Ang**3):
 XXXX=          -2829.9331 YYYY=          -1280.7138 ZZZZ=           -149.7874 XXXY=             83.1729
 XXXZ=             25.7441 YYYX=            106.1035 YYYZ=            -18.1333 ZZZX=             -4.1186
 ZZZY=              3.4783 XXYY=           -681.6556 XXZZ=           -484.9907 YYZZ=           -246.7720
 XXYZ=            -10.9972 YYXZ=              9.7518 ZZXY=              1.0273
 N-N= 9.001538031984D+02 E-N=-3.276500117337D+03  KE= 6.308033429034D+02
 No NMR shielding tensors so no spin-rotation constants.
 Leave Link  601 at Fri Jan 23 19:11:19 2026, MaxMem=  2147483648 cpu:               1.8 elap:               0.1
 (Enter /data/home/wyx/g16/l9999.exe)
 Electronic transition elements 
                 1             2             3             4             5 
      1  -0.633210D+03 -0.633178D+03 -0.633172D+03 -0.633143D+03 -0.633127D+03
      2  -0.158938D+01 -0.464875D-01 -0.809192D-01  0.385961D+00  0.445367D+00
      3  -0.369419D+00 -0.485401D-01  0.100009D+00 -0.169850D+01 -0.145682D+01
      4  -0.124414D+00  0.344334D-01 -0.384598D-01  0.149023D+00  0.799788D-01
      5   0.173327D+00  0.592502D-02  0.116635D-01 -0.622438D-01 -0.857746D-01
      6   0.438867D-01  0.732150D-02 -0.135265D-01  0.296795D+00  0.283548D+00
      7   0.127842D-01 -0.208306D-02  0.231465D-02 -0.224025D-01 -0.165487D-01
      8   0.113810D+00  0.804258D+00  0.523525D+00  0.529169D-01  0.136724D+00
      9   0.768033D-02  0.154674D+00 -0.864011D+00 -0.633585D-01 -0.450659D-01
     10  -0.146548D+01 -0.932736D-01 -0.140259D+00  0.792271D-01  0.302831D+00
     11   0.170493D+00  0.337525D-01  0.166242D-01 -0.118637D+01 -0.543498D+00
     12  -0.255881D+00 -0.195206D-01 -0.399536D-01  0.154107D+00  0.343399D+00
     13   0.150143D-01 -0.116510D-01  0.338707D-01  0.132770D-01  0.444515D-01
     14  -0.474673D+00 -0.214839D-01 -0.544832D-01 -0.443285D+00 -0.632911D-01
     15   0.575784D-01 -0.126716D-01  0.569371D-01 -0.413242D-01 -0.100682D-01
     16  -0.205306D-01  0.778005D-01  0.258823D-01 -0.606532D-01  0.260186D-01
                 6 
      1  -0.633110D+03
      2  -0.596268D-01
      3   0.222227D+00
      4   0.424222D-01
      5   0.131913D-01
      6  -0.458291D-01
      7  -0.291074D-01
      8   0.240791D-01
      9  -0.380846D-02
     10   0.309951D-01
     11  -0.174409D+00
     12  -0.157789D+00
     13   0.138854D+00
     14   0.711688D-03
     15  -0.390843D-01
     16   0.102937D+00
 1\1\GINC-CN012\SP\RCAM-B3LYP TD-FC\TZVP\C11H15N1O2\WYX\23-Jan-2026\0\\
 #p CAM-B3LYP TZVP em=gd3bj td(nstates=6,root=2) scrf=(Solvent=TetraHyd
 roFuran,CorrectedLR,NonEquilibrium=Save) Geom=Check Guess=Read\\Title 
 Card Required\\0,1\O,0,2.838465,-1.570358,0.07902\O,0,-3.4266,-1.63865
 3,-0.062623\N,0,-0.653994,1.515412,-0.250937\H,0,-0.964881,2.474722,-0
 .302122\C,0,-1.244676,-0.760561,-0.209157\C,0,0.686978,1.32176,-0.0535
 11\C,0,-1.62836,0.566784,-0.257947\C,0,-2.216337,-1.839589,-0.152746\C
 ,0,0.203507,-1.092919,-0.249185\H,0,0.428903,-1.913571,0.436692\H,0,0.
 461299,-1.528391,-1.229056\C,0,1.148878,0.024885,0.021429\C,0,2.516298
 ,-0.398923,0.29022\C,0,-3.016382,1.099118,-0.330496\H,0,-3.016773,2.17
 4666,-0.498146\H,0,-3.579167,0.623799,-1.126949\H,0,-3.561889,0.896921
 ,0.587044\C,0,-1.717988,-3.258967,-0.187447\H,0,-2.542786,-3.926465,-0
 .409669\H,0,-0.930823,-3.41539,-0.918743\H,0,-1.310522,-3.54344,0.7815
 41\C,0,3.553956,0.533416,0.866513\H,0,4.063063,1.078634,0.069273\H,0,3
 .139936,1.257691,1.563139\H,0,4.296261,-0.075783,1.377367\C,0,1.46814,
 2.591157,0.028066\H,0,1.645233,2.895303,1.059564\H,0,2.430542,2.505552
 ,-0.462774\H,0,0.929718,3.403189,-0.458361\\Version=ES64L-G16RevA.03\S
 tate=1-A\HF=-633.3248252\RMSD=2.976e-09\Dipole=-0.7591337,2.2227975,0.
 0208238\Quadrupole=-9.2606623,10.5539862,-1.2933239,7.0930683,1.678949
 2,0.0790929\PG=C01 [X(C11H15N1O2)]\\@


 A CHEMICAL PHYSICIST MAKES PRECISE MEASUREMENTS ON IMPURE COMPOUNDS.
 A THEORETICAL PHYSICAL CHEMIST MAKES IMPRECISE
     MEASUREMENTS ON PURE COMPOUNDS.
 AN EXPERIMENTAL PHYSICAL CHEMIST MAKES IMPRECISE
     MEASUREMENTS ON IMPURE COMPOUNDS.
 Job cpu time:       0 days  2 hours 41 minutes 32.9 seconds.
 Elapsed time:       0 days  0 hours 10 minutes  8.9 seconds.
 File lengths (MBytes):  RWF=    736 Int=      0 D2E=      0 Chk=     67 Scr=      1
 Normal termination of Gaussian 16 at Fri Jan 23 19:11:22 2026.
