 Entering Gaussian System, Link 0=g16
 Input=DDL-S1-cLR-11.gjf
 Output=DDL-S1-cLR-11.log
 Initial command:
 /data/home/wyx/g16/l1.exe "/scr/tmp/wyx/13106/Gau-1979096.inp" -scrdir="/scr/tmp/wyx/13106/"
 Entering Link 1 = /data/home/wyx/g16/l1.exe PID=   1979097.
  
 Copyright (c) 1988,1990,1992,1993,1995,1998,2003,2009,2016,
            Gaussian, Inc.  All Rights Reserved.
  
 This is part of the Gaussian(R) 16 program.  It is based on
 the Gaussian(R) 09 system (copyright 2009, Gaussian, Inc.),
 the Gaussian(R) 03 system (copyright 2003, Gaussian, Inc.),
 the Gaussian(R) 98 system (copyright 1998, Gaussian, Inc.),
 the Gaussian(R) 94 system (copyright 1995, Gaussian, Inc.),
 the Gaussian 92(TM) system (copyright 1992, Gaussian, Inc.),
 the Gaussian 90(TM) system (copyright 1990, Gaussian, Inc.),
 the Gaussian 88(TM) system (copyright 1988, Gaussian, Inc.),
 the Gaussian 86(TM) system (copyright 1986, Carnegie Mellon
 University), and the Gaussian 82(TM) system (copyright 1983,
 Carnegie Mellon University). Gaussian is a federally registered
 trademark of Gaussian, Inc.
  
 This software contains proprietary and confidential information,
 including trade secrets, belonging to Gaussian, Inc.
  
 This software is provided under written license and may be
 used, copied, transmitted, or stored only in accord with that
 written license.
  
 The following legend is applicable only to US Government
 contracts under FAR:
  
                    RESTRICTED RIGHTS LEGEND
  
 Use, reproduction and disclosure by the US Government is
 subject to restrictions as set forth in subparagraphs (a)
 and (c) of the Commercial Computer Software - Restricted
 Rights clause in FAR 52.227-19.
  
 Gaussian, Inc.
 340 Quinnipiac St., Bldg. 40, Wallingford CT 06492
  
  
 ---------------------------------------------------------------
 Warning -- This program may not be used in any manner that
 competes with the business of Gaussian, Inc. or will provide
 assistance to any competitor of Gaussian, Inc.  The licensee
 of this program is prohibited from giving any competitor of
 Gaussian, Inc. access to this program.  By using this program,
 the user acknowledges that Gaussian, Inc. is engaged in the
 business of creating and licensing software in the field of
 computational chemistry and represents and warrants to the
 licensee that it is not a competitor of Gaussian, Inc. and that
 it will not use this program in any manner prohibited above.
 ---------------------------------------------------------------
  

 Cite this work as:
 Gaussian 16, Revision A.03,
 M. J. Frisch, G. W. Trucks, H. B. Schlegel, G. E. Scuseria, 
 M. A. Robb, J. R. Cheeseman, G. Scalmani, V. Barone, 
 G. A. Petersson, H. Nakatsuji, X. Li, M. Caricato, A. V. Marenich, 
 J. Bloino, B. G. Janesko, R. Gomperts, B. Mennucci, H. P. Hratchian, 
 J. V. Ortiz, A. F. Izmaylov, J. L. Sonnenberg, D. Williams-Young, 
 F. Ding, F. Lipparini, F. Egidi, J. Goings, B. Peng, A. Petrone, 
 T. Henderson, D. Ranasinghe, V. G. Zakrzewski, J. Gao, N. Rega, 
 G. Zheng, W. Liang, M. Hada, M. Ehara, K. Toyota, R. Fukuda, 
 J. Hasegawa, M. Ishida, T. Nakajima, Y. Honda, O. Kitao, H. Nakai, 
 T. Vreven, K. Throssell, J. A. Montgomery, Jr., J. E. Peralta, 
 F. Ogliaro, M. J. Bearpark, J. J. Heyd, E. N. Brothers, K. N. Kudin, 
 V. N. Staroverov, T. A. Keith, R. Kobayashi, J. Normand, 
 K. Raghavachari, A. P. Rendell, J. C. Burant, S. S. Iyengar, 
 J. Tomasi, M. Cossi, J. M. Millam, M. Klene, C. Adamo, R. Cammi, 
 J. W. Ochterski, R. L. Martin, K. Morokuma, O. Farkas, 
 J. B. Foresman, and D. J. Fox, Gaussian, Inc., Wallingford CT, 2016.
 
 ******************************************
 Gaussian 16:  ES64L-G16RevA.03 25-Dec-2016
                23-Jan-2026 
 ******************************************
 %nprocshared=16
 Will use up to   16 processors via shared memory.
 %mem=16GB
 %oldchk=DDL-LR-11.chk
 %chk=DDL-S1-cLR-11.chk
 Copying data from "DDL-LR-11.chk" to current chk file "DDL-S1-cLR-11.chk"
 IOpt=  2 FromEx=T IUOpen= 4 IOptOp= 5 NList=   0 IFRang= 0 IUIn= 4 IUOut= 2.
 ----------------------------------------------------------------------
 #p CAM-B3LYP TZVP em=gd3bj td(nstates=6,root=1) scrf=(Solvent=TetraHyd
 roFuran,CorrectedLR,NonEquilibrium=Save) Geom=Check Guess=Read
 ----------------------------------------------------------------------
 1/29=2,30=1,38=1,172=1/1;
 2/12=2,40=1/2;
 3/5=19,7=101,11=9,14=-4,25=1,30=1,70=9002201,71=1,72=20,74=-40,116=-2,124=41/1,2,3,8;
 4/5=1/1;
 5/5=2,38=6,53=20/2;
 8/6=1,10=1,107=1,108=6/1;
 9/8=1,15=1,41=6,42=1,70=2,73=22/14;
 10/5=4,13=10,28=1,74=20/2;
 6/7=2,8=2,9=2,10=2,22=-1/1;
 99/5=1,9=1/99;
 Leave Link    1 at Fri Jan 23 20:34:32 2026, MaxMem=  2147483648 cpu:               0.8 elap:               0.2
 (Enter /data/home/wyx/g16/l101.exe)
 -------------------
 Title Card Required
 -------------------
 Structure from the checkpoint file:  "DDL-S1-cLR-11.chk"
 Charge =  0 Multiplicity = 1
 Z-Matrix found in chk file.
 O,0,2.836832,-1.567195,0.12015
 O,0,-3.422894,-1.628617,0.015858
 N,0,-0.643136,1.512703,-0.316036
 H,0,-0.952955,2.470835,-0.368901
 C,0,-1.240696,-0.758744,-0.217253
 C,0,0.695026,1.308926,-0.083284
 C,0,-1.618491,0.5552,-0.27764
 C,0,-2.220632,-1.83308,-0.122747
 C,0,0.212755,-1.103549,-0.308658
 H,0,0.45117,-1.938208,0.351288
 H,0,0.448154,-1.494127,-1.310067
 C,0,1.150319,0.023657,0.001442
 C,0,2.514342,-0.39597,0.310416
 C,0,-3.007478,1.092885,-0.311965
 H,0,-3.009792,2.156926,-0.541857
 H,0,-3.612755,0.57366,-1.046856
 H,0,-3.502717,0.949116,0.644992
 C,0,-1.725627,-3.252464,-0.189204
 H,0,-2.565384,-3.923776,-0.32968
 H,0,-1.007624,-3.405413,-0.990465
 H,0,-1.224877,-3.525203,0.738705
 C,0,3.541426,0.539147,0.901073
 H,0,4.053801,1.090261,0.110327
 H,0,3.115932,1.25815,1.596249
 H,0,4.282359,-0.068284,1.415649
 C,0,1.467761,2.582942,0.03117
 H,0,1.574061,2.894015,1.070281
 H,0,2.458425,2.500964,-0.39802
 H,0,0.952695,3.385241,-0.494964
 Recover connectivity data from disk.
 ITRead=  0  0  0  0  0  0  0  0  0  0  0  0  0  0  0  0  0  0  0  0
 ITRead=  0  0  0  0  0  0  0  0  0
 MicOpt= -1 -1 -1 -1 -1 -1 -1 -1 -1 -1 -1 -1 -1 -1 -1 -1 -1 -1 -1 -1
 MicOpt= -1 -1 -1 -1 -1 -1 -1 -1 -1
 NAtoms=     29 NQM=       29 NQMF=       0 NMMI=      0 NMMIF=      0
                NMic=       0 NMicF=      0.
                    Isotopes and Nuclear Properties:
 (Nuclear quadrupole moments (NQMom) in fm**2, nuclear magnetic moments (NMagM)
  in nuclear magnetons)

  Atom         1           2           3           4           5           6           7           8           9          10
 IAtWgt=          16          16          14           1          12          12          12          12          12           1
 AtmWgt=  15.9949146  15.9949146  14.0030740   1.0078250  12.0000000  12.0000000  12.0000000  12.0000000  12.0000000   1.0078250
 NucSpn=           0           0           2           1           0           0           0           0           0           1
 AtZEff=   5.6000000   5.6000000   4.5500000   1.0000000   3.6000000   3.6000000   3.6000000   3.6000000   3.6000000   1.0000000
 NQMom=    0.0000000   0.0000000   2.0440000   0.0000000   0.0000000   0.0000000   0.0000000   0.0000000   0.0000000   0.0000000
 NMagM=    0.0000000   0.0000000   0.4037610   2.7928460   0.0000000   0.0000000   0.0000000   0.0000000   0.0000000   2.7928460
 AtZNuc=   8.0000000   8.0000000   7.0000000   1.0000000   6.0000000   6.0000000   6.0000000   6.0000000   6.0000000   1.0000000

  Atom        11          12          13          14          15          16          17          18          19          20
 IAtWgt=           1          12          12          12           1           1           1          12           1           1
 AtmWgt=   1.0078250  12.0000000  12.0000000  12.0000000   1.0078250   1.0078250   1.0078250  12.0000000   1.0078250   1.0078250
 NucSpn=           1           0           0           0           1           1           1           0           1           1
 AtZEff=   1.0000000   3.6000000   3.6000000   3.6000000   1.0000000   1.0000000   1.0000000   3.6000000   1.0000000   1.0000000
 NQMom=    0.0000000   0.0000000   0.0000000   0.0000000   0.0000000   0.0000000   0.0000000   0.0000000   0.0000000   0.0000000
 NMagM=    2.7928460   0.0000000   0.0000000   0.0000000   2.7928460   2.7928460   2.7928460   0.0000000   2.7928460   2.7928460
 AtZNuc=   1.0000000   6.0000000   6.0000000   6.0000000   1.0000000   1.0000000   1.0000000   6.0000000   1.0000000   1.0000000

  Atom        21          22          23          24          25          26          27          28          29
 IAtWgt=           1          12           1           1           1          12           1           1           1
 AtmWgt=   1.0078250  12.0000000   1.0078250   1.0078250   1.0078250  12.0000000   1.0078250   1.0078250   1.0078250
 NucSpn=           1           0           1           1           1           0           1           1           1
 AtZEff=   1.0000000   3.6000000   1.0000000   1.0000000   1.0000000   3.6000000   1.0000000   1.0000000   1.0000000
 NQMom=    0.0000000   0.0000000   0.0000000   0.0000000   0.0000000   0.0000000   0.0000000   0.0000000   0.0000000
 NMagM=    2.7928460   0.0000000   2.7928460   2.7928460   2.7928460   0.0000000   2.7928460   2.7928460   2.7928460
 AtZNuc=   1.0000000   6.0000000   1.0000000   1.0000000   1.0000000   6.0000000   1.0000000   1.0000000   1.0000000
 Leave Link  101 at Fri Jan 23 20:34:35 2026, MaxMem=  2147483648 cpu:               0.9 elap:               0.1
 (Enter /data/home/wyx/g16/l202.exe)
                          Input orientation:                          
 ---------------------------------------------------------------------
 Center     Atomic      Atomic             Coordinates (Angstroms)
 Number     Number       Type             X           Y           Z
 ---------------------------------------------------------------------
      1          8           0        2.836832   -1.567195    0.120150
      2          8           0       -3.422894   -1.628617    0.015858
      3          7           0       -0.643136    1.512703   -0.316036
      4          1           0       -0.952955    2.470835   -0.368901
      5          6           0       -1.240696   -0.758744   -0.217253
      6          6           0        0.695026    1.308926   -0.083284
      7          6           0       -1.618491    0.555200   -0.277640
      8          6           0       -2.220632   -1.833080   -0.122747
      9          6           0        0.212755   -1.103549   -0.308658
     10          1           0        0.451170   -1.938208    0.351288
     11          1           0        0.448154   -1.494127   -1.310067
     12          6           0        1.150319    0.023657    0.001442
     13          6           0        2.514342   -0.395970    0.310416
     14          6           0       -3.007478    1.092885   -0.311965
     15          1           0       -3.009792    2.156926   -0.541857
     16          1           0       -3.612755    0.573660   -1.046856
     17          1           0       -3.502717    0.949116    0.644992
     18          6           0       -1.725627   -3.252464   -0.189204
     19          1           0       -2.565384   -3.923776   -0.329680
     20          1           0       -1.007624   -3.405413   -0.990465
     21          1           0       -1.224877   -3.525203    0.738705
     22          6           0        3.541426    0.539147    0.901073
     23          1           0        4.053801    1.090261    0.110327
     24          1           0        3.115932    1.258150    1.596249
     25          1           0        4.282359   -0.068284    1.415649
     26          6           0        1.467761    2.582942    0.031170
     27          1           0        1.574061    2.894015    1.070281
     28          1           0        2.458425    2.500964   -0.398020
     29          1           0        0.952695    3.385241   -0.494964
 ---------------------------------------------------------------------
                    Distance matrix (angstroms):
                    1          2          3          4          5
     1  O    0.000000
     2  O    6.260896   0.000000
     3  N    4.667570   4.207743   0.000000
     4  H    5.559437   4.801473   1.008365   0.000000
     5  C    4.170572   2.360722   2.350810   3.245916   0.000000
     6  C    3.591767   5.059274   1.373454   2.036529   2.835529
     7  C    4.951030   2.847994   1.367334   2.030006   1.368512
     8  C    5.070270   1.227375   3.704068   4.493471   1.457190
     9  C    2.699004   3.687676   2.752704   3.760150   1.496585
    10  H    2.425378   3.900863   3.681252   4.682937   2.139342
    11  H    2.785075   4.094042   3.349633   4.309272   2.141785
    12  C    2.321471   4.862560   2.352558   3.248014   2.525259
    13  C    1.229621   6.070993   3.742344   4.549966   3.809245
    14  C    6.435737   2.772474   2.401328   2.474480   2.561058
    15  H    6.963501   3.848641   2.463144   2.087829   3.425814
    16  H    6.895095   2.452638   3.199146   3.336680   2.844329
    17  H    6.840845   2.654598   3.068943   3.137657   2.962599
    18  C    4.873588   2.357890   4.888219   5.778016   2.540587
    19  H    5.910986   2.474364   5.766327   6.594886   3.432909
    20  H    4.403675   3.162787   4.977507   5.909283   2.767135
    21  H    4.551251   2.991793   5.179903   6.103540   2.927012
    22  C    2.354351   7.347419   4.465392   5.054079   5.079750
    23  H    2.922872   7.956267   4.735130   5.215673   5.617635
    24  H    3.199897   7.320335   4.225189   4.678489   5.131945
    25  H    2.452468   7.985298   5.455158   6.086071   5.800624
    26  C    4.371031   6.454144   2.392039   2.456113   4.308633
    27  H    4.732836   6.821698   2.957340   2.938730   4.787823
    28  H    4.118447   7.198239   3.256234   3.411637   4.933748
    29  H    5.334319   6.674241   2.466798   2.117435   4.696882
                    6          7          8          9         10
     6  C    0.000000
     7  C    2.440950   0.000000
     8  C    4.286586   2.467883   0.000000
     9  C    2.470509   2.471006   2.547185   0.000000
    10  H    3.285148   3.300929   2.715564   1.090425   0.000000
    11  H    3.069698   3.088150   2.940584   1.100356   1.719685
    12  C    1.366158   2.833149   3.850481   1.498593   2.111899
    13  C    2.524199   4.281453   4.967182   2.486207   2.576208
    14  C    3.715845   1.489822   3.035820   3.897978   4.646469
    15  H    3.828194   2.138003   4.088835   4.590195   5.435631
    16  H    4.475049   2.137551   2.929911   4.241756   4.977929
    17  H    4.275616   2.134649   3.158129   4.350588   4.904704
    18  C    5.164984   3.810197   1.504692   2.896451   2.599586
    19  H    6.170264   4.578268   2.129010   3.958810   3.675023
    20  H    5.093818   4.070348   2.167153   2.693096   2.465983
    21  H    5.265975   4.223456   2.144040   3.004690   2.340465
    22  C    3.108619   5.292860   6.314822   3.904094   3.998654
    23  H    3.371449   5.710666   6.925948   4.443195   4.712604
    24  H    2.946896   5.140074   6.402309   4.199373   4.343684
    25  H    4.124617   6.170575   6.911589   4.539459   4.394029
    26  C    1.494435   3.705678   5.755796   3.909059   4.645076
    27  H    2.148470   4.180829   6.178061   4.442426   5.012805
    28  H    2.151648   4.519041   6.383830   4.247768   4.929177
    29  H    2.132360   3.829799   6.118776   4.553181   5.413574
                   11         12         13         14         15
    11  H    0.000000
    12  C    2.125267   0.000000
    13  C    2.846234   1.460175   0.000000
    14  C    4.430602   4.304503   5.752786   0.000000
    15  H    5.087015   4.706648   6.144892   1.088595   0.000000
    16  H    4.564647   4.907984   6.350093   1.084444   1.767857
    17  H    5.039948   4.787627   6.174641   1.087059   1.763630
    18  C    3.012210   4.363528   5.136781   4.532137   5.570902
    19  H    3.993215   5.431235   6.217616   5.036134   6.100611
    20  H    2.423726   4.171225   4.811786   4.969352   5.928705
    21  H    3.334932   4.333534   4.894618   5.060465   6.091991
    22  C    4.311806   2.606235   1.509378   6.683280   6.900559
    23  H    4.658033   3.095110   2.149152   7.073896   7.173386
    24  H    4.810275   2.816206   2.179768   6.415976   6.550098
    25  H    4.915657   3.437748   2.110640   7.581206   7.871395
    26  C    4.411463   2.579068   3.169736   4.729247   4.534130
    27  H    5.117569   3.092075   3.505071   5.113235   4.914672
    28  H    4.564403   2.829799   2.982823   5.645014   5.480917
    29  H    4.972644   3.403780   4.169525   4.579449   4.148766
                   16         17         18         19         20
    16  H    0.000000
    17  H    1.736498   0.000000
    18  C    4.351556   4.637586   0.000000
    19  H    4.673142   5.057040   1.084244   0.000000
    20  H    4.756355   5.278459   1.086711   1.769733   0.000000
    21  H    5.068616   5.021640   1.089106   1.759905   1.746876
    22  C    7.414710   7.060708   6.580795   7.663261   6.311206
    23  H    7.770587   7.576724   7.235383   8.315515   6.858633
    24  H    7.261526   6.693796   6.853771   7.927100   6.741189
    25  H    8.295110   7.889006   6.986448   8.050005   6.701473
    26  C    5.568752   5.267999   6.655693   7.663801   6.559852
    27  H    6.063776   5.453181   7.088967   8.097973   7.112986
    28  H    6.402712   6.247505   7.117010   8.156017   6.873847
    29  H    5.390075   5.204316   7.164218   8.113318   7.085291
                   21         22         23         24         25
    21  H    0.000000
    22  C    6.266015   0.000000
    23  H    7.040015   1.091574   0.000000
    24  H    6.516016   1.086867   1.765148   0.000000
    25  H    6.537445   1.087540   1.760208   1.775555   0.000000
    26  C    6.712700   3.038736   2.986966   2.630782   4.107036
    27  H    7.010732   3.073200   3.213122   2.308693   4.028570
    28  H    7.153569   2.590224   2.189458   2.440084   3.635542
    29  H    7.349694   4.092762   3.905146   3.684736   5.163714
                   26         27         28         29
    26  C    0.000000
    27  H    1.089871   0.000000
    28  H    1.082746   1.758550   0.000000
    29  H    1.088942   1.754249   1.748876   0.000000
 Stoichiometry    C11H15NO2
 Framework group  C1[X(C11H15NO2)]
 Deg. of freedom    81
 Full point group                 C1      NOp   1
 RotChk:  IX=0 Diff= 6.90D-16
 Largest Abelian subgroup         C1      NOp   1
 Largest concise Abelian subgroup C1      NOp   1
                         Standard orientation:                         
 ---------------------------------------------------------------------
 Center     Atomic      Atomic             Coordinates (Angstroms)
 Number     Number       Type             X           Y           Z
 ---------------------------------------------------------------------
      1          8           0        2.287517   -2.279613   -0.217004
      2          8           0       -3.604160   -0.249331    0.387078
      3          7           0        0.023175    1.801873   -0.196104
      4          1           0        0.050541    2.809865   -0.194835
      5          6           0       -1.291464   -0.143192   -0.074635
      6          6           0        1.230668    1.151791   -0.120411
      7          6           0       -1.208647    1.222786   -0.066196
      8          6           0       -2.561310   -0.833903    0.109251
      9          6           0       -0.055988   -0.946095   -0.336760
     10          1           0       -0.047839   -1.848351    0.275526
     11          1           0       -0.067410   -1.335580   -1.365815
     12          6           0        1.232502   -0.214345   -0.112890
     13          6           0        2.399135   -1.080523    0.031380
     14          6           0       -2.331391    2.192910    0.067496
     15          1           0       -1.998180    3.208300   -0.139845
     16          1           0       -3.146529    1.946925   -0.604115
     17          1           0       -2.747670    2.168319    1.071391
     18          6           0       -2.582605   -2.330971   -0.040523
     19          1           0       -3.608987   -2.675662   -0.098072
     20          1           0       -2.042122   -2.668583   -0.920772
     21          1           0       -2.112756   -2.806634    0.819208
     22          6           0        3.734823   -0.575204    0.520061
     23          1           0        4.320988   -0.182230   -0.312714
     24          1           0        3.648235    0.203957    1.272849
     25          1           0        4.275427   -1.422511    0.935467
     26          6           0        2.394702    2.087608   -0.069360
     27          1           0        2.703028    2.286461    0.956900
     28          1           0        3.251612    1.705118   -0.609494
     29          1           0        2.130041    3.043877   -0.518022
 ---------------------------------------------------------------------
 Rotational constants (GHZ):           1.0790154           0.4906639           0.3457062
 Leave Link  202 at Fri Jan 23 20:34:35 2026, MaxMem=  2147483648 cpu:               0.0 elap:               0.0
 (Enter /data/home/wyx/g16/l301.exe)
 Standard basis: TZVP (5D, 7F)
 Ernie: Thresh=  0.10000D-02 Tol=  0.10000D-05 Strict=F.
 There are   370 symmetry adapted cartesian basis functions of A   symmetry.
 There are   356 symmetry adapted basis functions of A   symmetry.
   356 basis functions,   610 primitive gaussians,   370 cartesian basis functions
    52 alpha electrons       52 beta electrons
       nuclear repulsion energy       900.7198647573 Hartrees.
 IExCor=20419 DFT=T Ex+Corr=CAM-B3LYP ExCW=0 ScaHFX=  1.000000
 ScaDFX=  1.000000  1.000000  1.000000  0.810000 ScalE2=  1.000000  1.000000
 IRadAn=      5 IRanWt=     -1 IRanGd=            0 ICorTp=0 IEmpDi=141
 HFx  wShort=  0.000000 wLong=  0.330000 cFull=  0.190000 cShort=  0.000000 cLong=  0.460000
 DFx  wShort=  0.000000 wLong=  0.330000 cFull=  0.190000 cShort=  0.000000 cLong=  0.460000
 NAtoms=   29 NActive=   29 NUniq=   29 SFac= 1.00D+00 NAtFMM=   60 NAOKFM=F Big=F
 Integral buffers will be    131072 words long.
 Raffenetti 1 integral format.
 Two-electron integral symmetry is turned on.
 R6Disp:  Grimme-D3(BJ) Dispersion energy=       -0.0261898535 Hartrees.
 Nuclear repulsion after empirical dispersion term =      900.6936749039 Hartrees.
 ------------------------------------------------------------------------------
 Polarizable Continuum Model (PCM)
 =================================
 Model                : PCM.
 Atomic radii         : UFF (Universal Force Field).
 Polarization charges : Total charges.
 Charge compensation  : None.
 Solution method      : On-the-fly selection.
 Cavity type          : Scaled VdW (van der Waals Surface) (Alpha=1.100).
 Cavity algorithm     : GePol (No added spheres)
                        Default sphere list used, NSphG=   29.
                        Lebedev-Laikov grids with approx.  5.0 points / Ang**2.
                        Smoothing algorithm: York/Karplus (Gamma=1.0000).
                        Polarization charges: spherical gaussians, with
                                              point-specific exponents (IZeta= 3).
                        Self-potential: point-specific (ISelfS= 7).
                        Self-field    : sphere-specific E.n sum rule (ISelfD= 2).
 1st derivatives      : Analytical E(r).r(x)/FMM algorithm (CHGder, D1EAlg=3).
                        Cavity 1st derivative terms included.
 Solvent              : TetraHydroFuran, Eps=   7.425700 Eps(inf)=   1.974025
 ------------------------------------------------------------------------------
 GePol: Number of generator spheres                  =      29
 GePol: Total number of spheres                      =      29
 GePol: Number of exposed spheres                    =      29 (100.00%)
 GePol: Number of points                             =    2108
 GePol: Average weight of points                     =       0.13
 GePol: Minimum weight of points                     =   0.11D-11
 GePol: Maximum weight of points                     =    0.20577
 GePol: Number of points with low weight             =     142
 GePol: Fraction of low-weight points (<1% of avg)   =       6.74%
 GePol: Cavity surface area                          =    268.460 Ang**2
 GePol: Cavity volume                                =    286.480 Ang**3
 Leave Link  301 at Fri Jan 23 20:34:36 2026, MaxMem=  2147483648 cpu:               0.6 elap:               0.0
 (Enter /data/home/wyx/g16/l302.exe)
 NPDir=0 NMtPBC=     1 NCelOv=     1 NCel=       1 NClECP=     1 NCelD=      1
         NCelK=      1 NCelE2=     1 NClLst=     1 CellRange=     0.0.
 One-electron integrals computed using PRISM.
 One-electron integral symmetry used in STVInt
 NBasis=   356 RedAO= T EigKep=  4.69D-05  NBF=   356
 NBsUse=   356 1.00D-06 EigRej= -1.00D+00 NBFU=   356
 Precomputing XC quadrature grid using
 IXCGrd= 4 IRadAn=           5 IRanWt=          -1 IRanGd=           0 AccXCQ= 0.00D+00.
 Generated NRdTot=       0 NPtTot=           0 NUsed=           0 NTot=          32
 NSgBfM=   366   366   366   366   366 MxSgAt=    29 MxSgA2=    29.
 Leave Link  302 at Fri Jan 23 20:34:36 2026, MaxMem=  2147483648 cpu:               3.1 elap:               0.2
 (Enter /data/home/wyx/g16/l303.exe)
 DipDrv:  MaxL=1.
 Leave Link  303 at Fri Jan 23 20:34:36 2026, MaxMem=  2147483648 cpu:               0.5 elap:               0.0
 (Enter /data/home/wyx/g16/l308.exe)
 Leave Link  308 at Fri Jan 23 20:34:36 2026, MaxMem=  2147483648 cpu:               0.7 elap:               0.1
 (Enter /data/home/wyx/g16/l401.exe)
 Initial guess from the checkpoint file:  "DDL-S1-cLR-11.chk"
 B after Tr=    -0.000000    0.000000   -0.000000
         Rot=    1.000000   -0.000000   -0.000000    0.000000 Ang=   0.00 deg.
 Guess basis will be translated and rotated to current coordinates.
 GSVD:  received Info=                   1 from GESDD.
 JPrj=2 DoOrth=T DoCkMO=T.
 Leave Link  401 at Fri Jan 23 20:34:37 2026, MaxMem=  2147483648 cpu:               2.4 elap:               0.2
 (Enter /data/home/wyx/g16/l502.exe)
 Integral symmetry usage will be decided dynamically.
 Closed shell SCF:
 Using DIIS extrapolation, IDIIS=  1040.
 NGot=  2147483648 LenX=  2147200095 LenY=  2147062754
 Requested convergence on RMS density matrix=1.00D-08 within 128 cycles.
 Requested convergence on MAX density matrix=1.00D-06.
 Requested convergence on             energy=1.00D-06.
 No special actions if energy rises.
 Fock matrices will be formed incrementally for  20 cycles.

 Cycle   1  Pass 1  IDiag  1:
 FoFJK:  IHMeth= 1 ICntrl=       0 DoSepK=T KAlg= 0 I1Cent=           0 FoldK=F
 IRaf=         1 NMat=       1 IRICut=       1 DoRegI=T DoRafI=F ISym2E= 0 IDoP0=0 IntGTp=1.
 FoFCou: FMM=F IPFlag=           0 FMFlag=      100000 FMFlg1=           0
         NFxFlg=           0 DoJE=T BraDBF=F KetDBF=F FulRan=T
         wScrn=  0.000000 ICntrl=       500 IOpCl=  0 I1Cent=           0 NGrid=           0
         NMat0=    1 NMatS0=      1 NMatT0=    0 NMatD0=    1 NMtDS0=    0 NMtDT0=    0
 Symmetry not used in FoFCou.
 Inv3:  Mode=1 IEnd=    13330992.
 Iteration    1 A*A^-1 deviation from unit magnitude is 3.77D-15 for   1749.
 Iteration    1 A*A^-1 deviation from orthogonality  is 2.13D-15 for   1687    697.
 Iteration    1 A^-1*A deviation from unit magnitude is 3.77D-15 for   1749.
 Iteration    1 A^-1*A deviation from orthogonality  is 6.52D-15 for   1381   1350.
 E= -633.327563580786    
 DIIS: error= 1.54D-08 at cycle   1 NSaved=   1.
 NSaved= 1 IEnMin= 1 EnMin= -633.327563580786     IErMin= 1 ErrMin= 1.54D-08
 ErrMax= 1.54D-08  0.00D+00 EMaxC= 1.00D-01 BMatC= 6.38D-14 BMatP= 6.38D-14
 IDIUse=1 WtCom= 1.00D+00 WtEn= 0.00D+00
 Coeff-Com:  0.100D+01
 Coeff:      0.100D+01
 Gap=     0.232 Goal=   None    Shift=    0.000
 RMSDP=2.87D-09 MaxDP=8.25D-08              OVMax= 3.36D-07

 Error on total polarization charges =  0.01420
 SCF Done:  E(RCAM-B3LYP) =  -633.327563581     A.U. after    1 cycles
            NFock=  1  Conv=0.29D-08     -V/T= 2.0041
 KE= 6.307374022172D+02 PE=-3.277467101242D+03 EE= 1.112708460541D+03
 Leave Link  502 at Fri Jan 23 20:34:42 2026, MaxMem=  2147483648 cpu:              85.0 elap:               5.6
 (Enter /data/home/wyx/g16/l801.exe)
 DoSCS=F DFT=T ScalE2(SS,OS)=  1.000000  1.000000
 ExpMin= 9.52D-02 ExpMax= 2.70D+04 ExpMxC= 9.22D+02 IAcc=3 IRadAn=         5 AccDes= 0.00D+00
 HarFok:  IExCor=  205 AccDes= 0.00D+00 IRadAn=         5 IDoV=-2 UseB2=F ITyADJ=14
 ICtDFT= 12500011 ScaDFX=  1.000000  1.000000  1.000000  1.000000
 Largest valence mixing into a core orbital is  5.62D-05
 Largest core mixing into a valence orbital is  1.19D-05
 Range of M.O.s used for correlation:    15   356
 NBasis=   356 NAE=    52 NBE=    52 NFC=    14 NFV=     0
 NROrb=    342 NOA=    38 NOB=    38 NVA=   304 NVB=   304

 **** Warning!!: The largest alpha MO coefficient is  0.57392016D+02

 Leave Link  801 at Fri Jan 23 20:34:43 2026, MaxMem=  2147483648 cpu:               1.0 elap:               0.1
 (Enter /data/home/wyx/g16/l914.exe)
 RHF ground state
 Two-electron integrals replicated using symmetry.
 MDV=  2147483648 DFT=T DoStab=F Mixed=T DoRPA=T DoScal=F NonHer=T
 NEqPCM:  Using equilibrium solvation (IEInf=0, Eps=   7.4257, EpsInf=   1.9740)
 Making orbital integer symmetry assigments:
 Orbital symmetries:
       Occupied  (A) (A) (A) (A) (A) (A) (A) (A) (A) (A) (A) (A)
                 (A) (A) (A) (A) (A) (A) (A) (A) (A) (A) (A) (A)
                 (A) (A) (A) (A) (A) (A) (A) (A) (A) (A) (A) (A)
                 (A) (A) (A) (A) (A) (A) (A) (A) (A) (A) (A) (A)
                 (A) (A) (A) (A)
       Virtual   (A) (A) (A) (A) (A) (A) (A) (A) (A) (A) (A) (A)
                 (A) (A) (A) (A) (A) (A) (A) (A) (A) (A) (A) (A)
                 (A) (A) (A) (A) (A) (A) (A) (A) (A) (A) (A) (A)
                 (A) (A) (A) (A) (A) (A) (A) (A) (A) (A) (A) (A)
                 (A) (A) (A) (A) (A) (A) (A) (A) (A) (A) (A) (A)
                 (A) (A) (A) (A) (A) (A) (A) (A) (A) (A) (A) (A)
                 (A) (A) (A) (A) (A) (A) (A) (A) (A) (A) (A) (A)
                 (A) (A) (A) (A) (A) (A) (A) (A) (A) (A) (A) (A)
                 (A) (A) (A) (A) (A) (A) (A) (A) (A) (A) (A) (A)
                 (A) (A) (A) (A) (A) (A) (A) (A) (A) (A) (A) (A)
                 (A) (A) (A) (A) (A) (A) (A) (A) (A) (A) (A) (A)
                 (A) (A) (A) (A) (A) (A) (A) (A) (A) (A) (A) (A)
                 (A) (A) (A) (A) (A) (A) (A) (A) (A) (A) (A) (A)
                 (A) (A) (A) (A) (A) (A) (A) (A) (A) (A) (A) (A)
                 (A) (A) (A) (A) (A) (A) (A) (A) (A) (A) (A) (A)
                 (A) (A) (A) (A) (A) (A) (A) (A) (A) (A) (A) (A)
                 (A) (A) (A) (A) (A) (A) (A) (A) (A) (A) (A) (A)
                 (A) (A) (A) (A) (A) (A) (A) (A) (A) (A) (A) (A)
                 (A) (A) (A) (A) (A) (A) (A) (A) (A) (A) (A) (A)
                 (A) (A) (A) (A) (A) (A) (A) (A) (A) (A) (A) (A)
                 (A) (A) (A) (A) (A) (A) (A) (A) (A) (A) (A) (A)
                 (A) (A) (A) (A) (A) (A) (A) (A) (A) (A) (A) (A)
                 (A) (A) (A) (A) (A) (A) (A) (A) (A) (A) (A) (A)
                 (A) (A) (A) (A) (A) (A) (A) (A) (A) (A) (A) (A)
                 (A) (A) (A) (A) (A) (A) (A) (A) (A) (A) (A) (A)
                 (A) (A) (A) (A)
 PCM Corrected Linear-Response:
 Compute the excitation energies in the ground state reaction field.
    24 initial guesses have been made.
 Convergence on wavefunction:    0.000001000000000
 Davidson Disk Diagonalization:  ConvIn= 1.00D-06 SkipCon=T Conv= 1.00D-06.
 Max sub-space:  2000 roots to seek:    24 dimension of matrix:        23104
 Iteration     1 Dimension    24 NMult     0 NNew     24
 CISAX will form    24 AO SS matrices at one time.
 NMat=    24 NSing=    24 JSym2X= 0.
 FoFJK:  IHMeth= 1 ICntrl=       0 DoSepK=T KAlg= 0 I1Cent=           0 FoldK=F
 IRaf=         1 NMat=      48 IRICut=       1 DoRegI=T DoRafI=F ISym2E= 0 IDoP0=3 IntGTp=3.
 FoFCou: FMM=F IPFlag=           0 FMFlag=      100000 FMFlg1=           0
         NFxFlg=           0 DoJE=F BraDBF=F KetDBF=F FulRan=T
         wScrn=  0.000000 ICntrl=       500 IOpCl=  0 I1Cent=           0 NGrid=           0
         NMat0=   24 NMatS0=     24 NMatT0=    0 NMatD0=   24 NMtDS0=    0 NMtDT0=    0
 Symmetry not used in FoFCou.
 New state      2 was old state      3
 New state      3 was old state      4
 New state      4 was old state      2
 New state      5 was old state      6
 New state      6 was old state      5
 Excitation Energies [eV] at current iteration:
 Root      1 :     3.887974108363830
 Root      2 :     4.289727162315497
 Root      3 :     4.482627922875783
 Root      4 :     5.497666713194123
 Root      5 :     6.127012395792542
 Root      6 :     6.510688958637880
 Root      7 :     6.685192486517775
 Root      8 :     6.774681052138575
 Root      9 :     6.992904564970486
 Root     10 :     7.015215683569888
 Root     11 :     7.270329561853954
 Root     12 :     7.393755343445542
 Root     13 :     7.521588819467324
 Root     14 :     7.597688414433159
 Root     15 :     7.769009335824340
 Root     16 :     7.981776900310483
 Root     17 :     8.110917907972404
 Root     18 :     8.196837708476330
 Root     19 :     8.265388707427174
 Root     20 :     8.531719823939506
 Root     21 :     8.675951370556305
 Root     22 :     8.925145478828243
 Root     23 :     9.072311177751073
 Root     24 :     9.138254279463467
 Iteration     2 Dimension    36 NMult    24 NNew     12
 CISAX will form    12 AO SS matrices at one time.
 NMat=    12 NSing=    12 JSym2X= 0.
 Root      1 not converged, maximum delta is    0.043189599028022
 Root      2 not converged, maximum delta is    0.074301976840223
 Root      3 not converged, maximum delta is    0.091820206952275
 Root      4 not converged, maximum delta is    0.208044227607463
 New state      5 was old state      6
 Root      5 not converged, maximum delta is    0.236579311480181
 New state      6 was old state      5
 Root      6 not converged, maximum delta is    0.132503297213065
 Excitation Energies [eV] at current iteration:
 Root      1 :     3.425843116658244   Change is   -0.462130991705586
 Root      2 :     4.057542759894705   Change is   -0.232184402420792
 Root      3 :     4.211114504543438   Change is   -0.271513418332344
 Root      4 :     5.179671108979329   Change is   -0.317995604214795
 Root      5 :     5.676107849594410   Change is   -0.834581109043470
 Root      6 :     5.997333988672597   Change is   -0.129678407119944
 Iteration     3 Dimension    48 NMult    36 NNew     12
 CISAX will form    12 AO SS matrices at one time.
 NMat=    12 NSing=    12 JSym2X= 0.
 Root      1 not converged, maximum delta is    0.009776270672036
 Root      2 not converged, maximum delta is    0.014482700819795
 Root      3 not converged, maximum delta is    0.013845864006600
 Root      4 not converged, maximum delta is    0.025376525627296
 Root      5 not converged, maximum delta is    0.026386712719131
 Root      6 not converged, maximum delta is    0.019650601381445
 Excitation Energies [eV] at current iteration:
 Root      1 :     3.405924046094929   Change is   -0.019919070563315
 Root      2 :     4.043913587239301   Change is   -0.013629172655405
 Root      3 :     4.196672532653682   Change is   -0.014441971889756
 Root      4 :     5.158093530495121   Change is   -0.021577578484208
 Root      5 :     5.631067684219110   Change is   -0.045040165375301
 Root      6 :     5.986790298946195   Change is   -0.010543689726402
 Iteration     4 Dimension    60 NMult    48 NNew     12
 CISAX will form    12 AO SS matrices at one time.
 NMat=    12 NSing=    12 JSym2X= 0.
 Root      1 not converged, maximum delta is    0.002499554584078
 Root      2 not converged, maximum delta is    0.001864891889719
 Root      3 not converged, maximum delta is    0.002211742485251
 Root      4 not converged, maximum delta is    0.002511543015652
 Root      5 not converged, maximum delta is    0.004507687934781
 Root      6 not converged, maximum delta is    0.004201428759506
 Excitation Energies [eV] at current iteration:
 Root      1 :     3.404265745590748   Change is   -0.001658300504181
 Root      2 :     4.043190557745350   Change is   -0.000723029493950
 Root      3 :     4.195791402164005   Change is   -0.000881130489677
 Root      4 :     5.156122121106610   Change is   -0.001971409388511
 Root      5 :     5.626620551482717   Change is   -0.004447132736392
 Root      6 :     5.985997520555922   Change is   -0.000792778390273
 Iteration     5 Dimension    72 NMult    60 NNew     12
 CISAX will form    12 AO SS matrices at one time.
 NMat=    12 NSing=    12 JSym2X= 0.
 Root      1 not converged, maximum delta is    0.000722812918806
 Root      2 not converged, maximum delta is    0.000324062267893
 Root      3 not converged, maximum delta is    0.000560561120479
 Root      4 not converged, maximum delta is    0.000753763934600
 Root      5 not converged, maximum delta is    0.000995956538602
 Root      6 not converged, maximum delta is    0.001112221410490
 Excitation Energies [eV] at current iteration:
 Root      1 :     3.404164915431062   Change is   -0.000100830159686
 Root      2 :     4.043138545070142   Change is   -0.000052012675209
 Root      3 :     4.195738638721813   Change is   -0.000052763442193
 Root      4 :     5.155983455959645   Change is   -0.000138665146964
 Root      5 :     5.626260591717526   Change is   -0.000359959765192
 Root      6 :     5.985935128657695   Change is   -0.000062391898227
 Iteration     6 Dimension    84 NMult    72 NNew     12
 CISAX will form    12 AO SS matrices at one time.
 NMat=    12 NSing=    12 JSym2X= 0.
 Root      1 not converged, maximum delta is    0.000193122291871
 Root      2 not converged, maximum delta is    0.000106750007384
 Root      3 not converged, maximum delta is    0.000159083717695
 Root      4 not converged, maximum delta is    0.000423606561123
 Root      5 not converged, maximum delta is    0.000340366673886
 Root      6 not converged, maximum delta is    0.000184167808899
 Excitation Energies [eV] at current iteration:
 Root      1 :     3.404159184269286   Change is   -0.000005731161776
 Root      2 :     4.043135207103943   Change is   -0.000003337966198
 Root      3 :     4.195735505707445   Change is   -0.000003133014368
 Root      4 :     5.155971537446611   Change is   -0.000011918513035
 Root      5 :     5.626232570789288   Change is   -0.000028020928237
 Root      6 :     5.985930193279895   Change is   -0.000004935377801
 Iteration     7 Dimension    96 NMult    84 NNew     12
 CISAX will form    12 AO SS matrices at one time.
 NMat=    12 NSing=    12 JSym2X= 0.
 Root      1 not converged, maximum delta is    0.000018096611704
 Root      2 not converged, maximum delta is    0.000021366157770
 Root      3 not converged, maximum delta is    0.000034354121488
 Root      4 not converged, maximum delta is    0.000125254987792
 Root      5 not converged, maximum delta is    0.000114339198793
 Root      6 not converged, maximum delta is    0.000059166503574
 Excitation Energies [eV] at current iteration:
 Root      1 :     3.404158861875695   Change is   -0.000000322393590
 Root      2 :     4.043135029944981   Change is   -0.000000177158962
 Root      3 :     4.195735350370996   Change is   -0.000000155336448
 Root      4 :     5.155970393147851   Change is   -0.000001144298760
 Root      5 :     5.626230106338174   Change is   -0.000002464451114
 Root      6 :     5.985929789351864   Change is   -0.000000403928030
 Iteration     8 Dimension   108 NMult    96 NNew     12
 CISAX will form    12 AO SS matrices at one time.
 NMat=    12 NSing=    12 JSym2X= 0.
 Root      1 not converged, maximum delta is    0.000004189140004
 Root      2 not converged, maximum delta is    0.000003704661060
 Root      3 not converged, maximum delta is    0.000003782566297
 Root      4 not converged, maximum delta is    0.000022536709723
 Root      5 not converged, maximum delta is    0.000024208962211
 Root      6 not converged, maximum delta is    0.000013263217495
 Excitation Energies [eV] at current iteration:
 Root      1 :     3.404158849686344   Change is   -0.000000012189352
 Root      2 :     4.043135019628049   Change is   -0.000000010316932
 Root      3 :     4.195735342045491   Change is   -0.000000008325505
 Root      4 :     5.155970304160621   Change is   -0.000000088987229
 Root      5 :     5.626229934076329   Change is   -0.000000172261846
 Root      6 :     5.985929754730023   Change is   -0.000000034621842
 Iteration     9 Dimension   120 NMult   108 NNew     12
 CISAX will form    12 AO SS matrices at one time.
 NMat=    12 NSing=    12 JSym2X= 0.
 Root      1 has converged.
 Root      2 has converged.
 Root      3 has converged.
 Root      4 not converged, maximum delta is    0.000004292020074
 Root      5 not converged, maximum delta is    0.000005891085147
 Root      6 not converged, maximum delta is    0.000004238904022
 Excitation Energies [eV] at current iteration:
 Root      1 :     3.404158849208311   Change is   -0.000000000478032
 Root      2 :     4.043135019257893   Change is   -0.000000000370155
 Root      3 :     4.195735341768779   Change is   -0.000000000276713
 Root      4 :     5.155970300030930   Change is   -0.000000004129692
 Root      5 :     5.626229923819979   Change is   -0.000000010256349
 Root      6 :     5.985929752564559   Change is   -0.000000002165464
 Iteration    10 Dimension   126 NMult   120 NNew      6
 CISAX will form     6 AO SS matrices at one time.
 NMat=     6 NSing=     6 JSym2X= 0.
 Root      1 has converged.
 Root      2 has converged.
 Root      3 has converged.
 Root      4 not converged, maximum delta is    0.000001010128073
 Root      5 not converged, maximum delta is    0.000001861323803
 Root      6 not converged, maximum delta is    0.000001189721735
 Excitation Energies [eV] at current iteration:
 Root      1 :     3.404158849206090   Change is   -0.000000000002222
 Root      2 :     4.043135019254986   Change is   -0.000000000002908
 Root      3 :     4.195735341766721   Change is   -0.000000000002057
 Root      4 :     5.155970299817326   Change is   -0.000000000213604
 Root      5 :     5.626229923146536   Change is   -0.000000000673443
 Root      6 :     5.985929752420014   Change is   -0.000000000144545
 Iteration    11 Dimension   132 NMult   126 NNew      6
 CISAX will form     6 AO SS matrices at one time.
 NMat=     6 NSing=     6 JSym2X= 0.
 Root      1 has converged.
 Root      2 has converged.
 Root      3 has converged.
 Root      4 has converged.
 Root      5 has converged.
 Root      6 has converged.
 Excitation Energies [eV] at current iteration:
 Root      1 :     3.404158849205969   Change is   -0.000000000000121
 Root      2 :     4.043135019254722   Change is   -0.000000000000264
 Root      3 :     4.195735341766388   Change is   -0.000000000000333
 Root      4 :     5.155970299805192   Change is   -0.000000000012133
 Root      5 :     5.626229923103929   Change is   -0.000000000042608
 Root      6 :     5.985929752408643   Change is   -0.000000000011371
 Convergence achieved on expansion vectors.
 PCM Corrected Linear-Response:
 The state of interest is root number   1
 Excitation energy =    3.4042 eV, Total energy =  -633.202463045    
 Recompute the excitation energies using the linear response reaction field.
 Convergence on wavefunction:    0.000001000000000
 Davidson Disk Diagonalization:  ConvIn= 1.00D-06 SkipCon=T Conv= 1.00D-06.
 Max sub-space:  2000 roots to seek:     6 dimension of matrix:        23104
 Iteration     1 Dimension     6 NMult     0 NNew      6
 CISAX will form     6 AO SS matrices at one time.
 NMat=     6 NSing=     6 JSym2X= 0.
 Excitation Energies [eV] at current iteration:
 Root      1 :     3.504375934348848
 Root      2 :     4.070567508177811
 Root      3 :     4.223056247505971
 Root      4 :     5.232200084009579
 Root      5 :     5.796000843447803
 Root      6 :     5.964466662797020
 Iteration     2 Dimension    18 NMult     6 NNew     12
 CISAX will form    12 AO SS matrices at one time.
 NMat=    12 NSing=    12 JSym2X= 0.
 Root      1 not converged, maximum delta is    0.017396274692237
 Root      2 not converged, maximum delta is    0.017197127519063
 Root      3 not converged, maximum delta is    0.007486873677605
 Root      4 not converged, maximum delta is    0.213731928716649
 Root      5 not converged, maximum delta is    0.251448285463765
 Root      6 not converged, maximum delta is    0.100962571761734
 Excitation Energies [eV] at current iteration:
 Root      1 :     3.290333843492819   Change is   -0.214042090856029
 Root      2 :     4.038545758193159   Change is   -0.032021749984652
 Root      3 :     4.190540802582124   Change is   -0.032515444923846
 Root      4 :     5.032129103512475   Change is   -0.200070980497104
 Root      5 :     5.501379684918442   Change is   -0.294621158529361
 Root      6 :     5.943211433237977   Change is   -0.021255229559042
 Iteration     3 Dimension    30 NMult    18 NNew     12
 CISAX will form    12 AO SS matrices at one time.
 NMat=    12 NSing=    12 JSym2X= 0.
 Root      1 not converged, maximum delta is    0.002641738129331
 Root      2 not converged, maximum delta is    0.000849699829461
 Root      3 not converged, maximum delta is    0.000966694222736
 Root      4 not converged, maximum delta is    0.012024958463379
 Root      5 not converged, maximum delta is    0.010912904328615
 Root      6 not converged, maximum delta is    0.009586240927113
 Excitation Energies [eV] at current iteration:
 Root      1 :     3.287506203927263   Change is   -0.002827639565557
 Root      2 :     4.038265239990865   Change is   -0.000280518202293
 Root      3 :     4.190236781167605   Change is   -0.000304021414520
 Root      4 :     5.024131942246485   Change is   -0.007997161265990
 Root      5 :     5.493204195971190   Change is   -0.008175488947252
 Root      6 :     5.941832134363231   Change is   -0.001379298874746
 Iteration     4 Dimension    42 NMult    30 NNew     12
 CISAX will form    12 AO SS matrices at one time.
 NMat=    12 NSing=    12 JSym2X= 0.
 Root      1 not converged, maximum delta is    0.001510266718968
 Root      2 not converged, maximum delta is    0.000163911376845
 Root      3 not converged, maximum delta is    0.000159608917603
 Root      4 not converged, maximum delta is    0.001894375950816
 Root      5 not converged, maximum delta is    0.002809223146426
 Root      6 not converged, maximum delta is    0.010982161826790
 Excitation Energies [eV] at current iteration:
 Root      1 :     3.287129893393482   Change is   -0.000376310533781
 Root      2 :     4.038251067008820   Change is   -0.000014172982046
 Root      3 :     4.190219929236413   Change is   -0.000016851931192
 Root      4 :     5.023014027339724   Change is   -0.001117914906760
 Root      5 :     5.492160678808609   Change is   -0.001043517162581
 Root      6 :     5.941324498498891   Change is   -0.000507635864341
 Iteration     5 Dimension    54 NMult    42 NNew     12
 CISAX will form    12 AO SS matrices at one time.
 NMat=    12 NSing=    12 JSym2X= 0.
 Root      1 not converged, maximum delta is    0.000567730060387
 Root      2 not converged, maximum delta is    0.000075589696810
 Root      3 not converged, maximum delta is    0.000081921500858
 Root      4 not converged, maximum delta is    0.000708167463080
 Root      5 not converged, maximum delta is    0.000662518634962
 Root      6 not converged, maximum delta is    0.004576217457369
 Excitation Energies [eV] at current iteration:
 Root      1 :     3.287103283039399   Change is   -0.000026610354083
 Root      2 :     4.038250147992589   Change is   -0.000000919016231
 Root      3 :     4.190218602482463   Change is   -0.000001326753951
 Root      4 :     5.022913126890015   Change is   -0.000100900449709
 Root      5 :     5.492047195710126   Change is   -0.000113483098483
 Root      6 :     5.941213362806734   Change is   -0.000111135692157
 Iteration     6 Dimension    66 NMult    54 NNew     12
 CISAX will form    12 AO SS matrices at one time.
 NMat=    12 NSing=    12 JSym2X= 0.
 Root      1 not converged, maximum delta is    0.000070704225020
 Root      2 not converged, maximum delta is    0.000025295795114
 Root      3 not converged, maximum delta is    0.000025041030201
 Root      4 not converged, maximum delta is    0.000268286267962
 Root      5 not converged, maximum delta is    0.000371586921292
 Root      6 not converged, maximum delta is    0.000840495356829
 Excitation Energies [eV] at current iteration:
 Root      1 :     3.287101506016362   Change is   -0.000001777023037
 Root      2 :     4.038250048860047   Change is   -0.000000099132541
 Root      3 :     4.190218485786700   Change is   -0.000000116695762
 Root      4 :     5.022903357777382   Change is   -0.000009769112633
 Root      5 :     5.492033578882092   Change is   -0.000013616828034
 Root      6 :     5.941200274074594   Change is   -0.000013088732141
 Iteration     7 Dimension    78 NMult    66 NNew     12
 CISAX will form    12 AO SS matrices at one time.
 NMat=    12 NSing=    12 JSym2X= 0.
 Root      1 not converged, maximum delta is    0.000009251573249
 Root      2 not converged, maximum delta is    0.000004655135218
 Root      3 not converged, maximum delta is    0.000006528924795
 Root      4 not converged, maximum delta is    0.000093486361747
 Root      5 not converged, maximum delta is    0.000141711036224
 Root      6 not converged, maximum delta is    0.000106588382245
 Excitation Energies [eV] at current iteration:
 Root      1 :     3.287101441410576   Change is   -0.000000064605785
 Root      2 :     4.038250044390010   Change is   -0.000000004470037
 Root      3 :     4.190218478909351   Change is   -0.000000006877349
 Root      4 :     5.022902351873393   Change is   -0.000001005903990
 Root      5 :     5.492032030623935   Change is   -0.000001548258157
 Root      6 :     5.941198888200899   Change is   -0.000001385873694
 Iteration     8 Dimension    90 NMult    78 NNew     12
 CISAX will form    12 AO SS matrices at one time.
 NMat=    12 NSing=    12 JSym2X= 0.
 Root      1 not converged, maximum delta is    0.000002188936795
 Root      2 not converged, maximum delta is    0.000001389234249
 Root      3 not converged, maximum delta is    0.000001072353839
 Root      4 not converged, maximum delta is    0.000022959156140
 Root      5 not converged, maximum delta is    0.000039177956996
 Root      6 not converged, maximum delta is    0.000040342389205
 Excitation Energies [eV] at current iteration:
 Root      1 :     3.287101438749706   Change is   -0.000000002660870
 Root      2 :     4.038250044188168   Change is   -0.000000000201842
 Root      3 :     4.190218478498767   Change is   -0.000000000410585
 Root      4 :     5.022902279717997   Change is   -0.000000072155396
 Root      5 :     5.492031878807430   Change is   -0.000000151816505
 Root      6 :     5.941198738603213   Change is   -0.000000149597687
 Iteration     9 Dimension   102 NMult    90 NNew     12
 CISAX will form    12 AO SS matrices at one time.
 NMat=    12 NSing=    12 JSym2X= 0.
 Root      1 has converged.
 Root      2 has converged.
 Root      3 has converged.
 Root      4 not converged, maximum delta is    0.000005340885774
 Root      5 not converged, maximum delta is    0.000011254486748
 Root      6 not converged, maximum delta is    0.000019442978835
 Excitation Energies [eV] at current iteration:
 Root      1 :     3.287101438651771   Change is   -0.000000000097936
 Root      2 :     4.038250044178540   Change is   -0.000000000009629
 Root      3 :     4.190218478476009   Change is   -0.000000000022758
 Root      4 :     5.022902275009295   Change is   -0.000000004708702
 Root      5 :     5.492031866479294   Change is   -0.000000012328137
 Root      6 :     5.941198721711732   Change is   -0.000000016891481
 Iteration    10 Dimension   108 NMult   102 NNew      6
 CISAX will form     6 AO SS matrices at one time.
 NMat=     6 NSing=     6 JSym2X= 0.
 Root      1 has converged.
 Root      2 has converged.
 Root      3 has converged.
 Root      4 not converged, maximum delta is    0.000001487933000
 Root      5 not converged, maximum delta is    0.000003350945568
 Root      6 not converged, maximum delta is    0.000006783249848
 Excitation Energies [eV] at current iteration:
 Root      1 :     3.287101438650745   Change is   -0.000000000001026
 Root      2 :     4.038250044178295   Change is   -0.000000000000244
 Root      3 :     4.190218478475675   Change is   -0.000000000000334
 Root      4 :     5.022902274743273   Change is   -0.000000000266022
 Root      5 :     5.492031865585793   Change is   -0.000000000893500
 Root      6 :     5.941198720021781   Change is   -0.000000001689951
 Iteration    11 Dimension   114 NMult   108 NNew      6
 CISAX will form     6 AO SS matrices at one time.
 NMat=     6 NSing=     6 JSym2X= 0.
 Root      1 has converged.
 Root      2 has converged.
 Root      3 has converged.
 Root      4 has converged.
 Root      5 has converged.
 Root      6 not converged, maximum delta is    0.000001692700653
 Excitation Energies [eV] at current iteration:
 Root      1 :     3.287101438650570   Change is   -0.000000000000175
 Root      2 :     4.038250044178173   Change is   -0.000000000000122
 Root      3 :     4.190218478475597   Change is   -0.000000000000079
 Root      4 :     5.022902274727299   Change is   -0.000000000015974
 Root      5 :     5.492031865520336   Change is   -0.000000000065458
 Root      6 :     5.941198719862588   Change is   -0.000000000159193
 Iteration    12 Dimension   116 NMult   114 NNew      2
 CISAX will form     2 AO SS matrices at one time.
 NMat=     2 NSing=     2 JSym2X= 0.
 Root      1 has converged.
 Root      2 has converged.
 Root      3 has converged.
 Root      4 has converged.
 Root      5 has converged.
 Root      6 has converged.
 Excitation Energies [eV] at current iteration:
 Root      1 :     3.287101438650570   Change is    0.000000000000000
 Root      2 :     4.038250044178173   Change is    0.000000000000000
 Root      3 :     4.190218478475498   Change is   -0.000000000000098
 Root      4 :     5.022902274727381   Change is    0.000000000000082
 Root      5 :     5.492031865520215   Change is   -0.000000000000120
 Root      6 :     5.941198719848793   Change is   -0.000000000013795
 Convergence achieved on expansion vectors.
 ***********************************************************************
 Excited states from <AA,BB:AA,BB> singles matrix:
 ***********************************************************************
 
 1PDM for each excited state written to RWF  633
 Ground to excited state transition densities written to RWF  633
 Ground to excited state transition electric dipole moments (Au):
       state          X           Y           Z        Dip. S.      Osc.
         1        -1.6186      0.1932      0.0506      2.6597      0.2142
         2        -0.1087     -0.0201      0.0424      0.0140      0.0014
         3        -0.0253      0.1386     -0.0324      0.0209      0.0021
         4        -0.1964     -1.7518      0.1105      3.1195      0.3839
         5        -0.0601     -1.4966      0.0193      2.2437      0.3019
         6         0.0275      0.2364      0.0622      0.0605      0.0088
 Ground to excited state transition velocity dipole moments (Au):
       state          X           Y           Z        Dip. S.      Osc.
         1         0.1876     -0.0187     -0.0068      0.0356      0.1964
         2         0.0154      0.0033     -0.0034      0.0003      0.0012
         3         0.0038     -0.0197      0.0015      0.0004      0.0017
         4         0.0392      0.3098     -0.0161      0.0978      0.3531
         5         0.0126      0.2964     -0.0049      0.0881      0.2908
         6        -0.0068     -0.0484     -0.0331      0.0035      0.0106
 Ground to excited state transition magnetic dipole moments (Au):
       state          X           Y           Z
         1        -0.0625      0.0273     -1.4537
         2         0.8036     -0.1271     -0.2751
         3         0.1750     -0.9929     -0.1977
         4         0.0530     -0.0979      0.0776
         5         0.1770     -0.1055      0.2883
         6        -0.0102     -0.0119      0.0197
 Ground to excited state transition velocity quadrupole moments (Au):
       state          XX          YY          ZZ          XY          XZ          YZ
         1        -0.1714      0.0979      0.0031     -0.5292      0.0519      0.0147
         2         0.0089     -0.0070     -0.0019     -0.0436      0.0143      0.0842
         3         0.0023     -0.0051      0.0256     -0.0569      0.0649      0.0095
         4        -1.2996      0.2994     -0.0002      0.0821      0.0863     -0.0484
         5        -0.5018      0.2726      0.0473      0.2299      0.0681      0.0288
         6        -0.2111     -0.1958      0.1708      0.0152      0.0329      0.0633
 <0|del|b> * <b|rxdel|0> + <0|del|b> * <b|delr+rdel|0>
 Rotatory Strengths (R) in cgs (10**-40 erg-esu-cm/Gauss)
       state          XX          YY          ZZ    R(velocity)    E-M Angle
         1        40.7380     -7.8477    -46.7121     -4.6072       90.49
         2         1.4580     34.5274     25.5746     20.5200       21.35
         3        46.8449      1.1136     43.3135     30.4240       15.45
         4      -114.1815      0.4895      0.7254    -37.6555      134.04
         5       -94.6146      4.0328    -16.1690    -35.5836      106.84
         6         1.6432     -0.8211     -0.8375     -0.0051       90.00
 1/2[<0|r|b>*<b|rxdel|0> + (<0|rxdel|b>*<b|r|0>)*]
 Rotatory Strengths (R) in cgs (10**-40 erg-esu-cm/Gauss)
       state          XX          YY          ZZ     R(length)
         1       -71.4941     -3.7307     52.0105     -7.7381
         2        61.7997     -1.8055      8.2426     22.7456
         3         3.1297     97.3198     -4.5336     31.9720
         4         7.3677   -121.2233     -6.0634    -39.9730
         5         7.5239   -111.7041     -3.9336    -36.0379
         6         0.1987      1.9974     -0.8657      0.4435
  1/2[<0|del|b>*<b|r|0> + (<0|r|b>*<b|del|0>)*] (Au)
       state          X           Y           Z        Dip. S.   Osc.(frdel)
         1        -0.3036     -0.0036     -0.0003      0.3076      0.2050
         2        -0.0017     -0.0001     -0.0001      0.0019      0.0013
         3        -0.0001     -0.0027     -0.0000      0.0029      0.0019
         4        -0.0077     -0.5427     -0.0018      0.5521      0.3681
         5        -0.0008     -0.4436     -0.0001      0.4445      0.2963
         6        -0.0002     -0.0114     -0.0021      0.0137      0.0091

 Excitation energies and oscillator strengths:
 
 Excited State   1:      Singlet-A      3.2871 eV  377.18 nm  f=0.2142  <S**2>=0.000
      52 -> 53         0.69984
 This state for optimization and/or second-order correction.
 Total Energy, E(TD-HF/TD-DFT) =  -633.206764826    
 Copying the excited state density for this state as the 1-particle RhoCI density.
 
 Excited State   2:      Singlet-A      4.0383 eV  307.02 nm  f=0.0014  <S**2>=0.000
      50 -> 54         0.18694
      51 -> 53         0.57094
      51 -> 54         0.32576
 
 Excited State   3:      Singlet-A      4.1902 eV  295.89 nm  f=0.0021  <S**2>=0.000
      49 -> 53         0.21344
      49 -> 54        -0.14080
      50 -> 53         0.54050
      50 -> 54        -0.25820
      50 -> 58         0.11361
      51 -> 54         0.20681
 
 Excited State   4:      Singlet-A      5.0229 eV  246.84 nm  f=0.3839  <S**2>=0.000
      52 -> 54         0.69397
 
 Excited State   5:      Singlet-A      5.4920 eV  225.75 nm  f=0.3019  <S**2>=0.000
      49 -> 53         0.62866
      50 -> 53        -0.25103
      51 -> 53         0.12342
 
 Excited State   6:      Singlet-A      5.9412 eV  208.69 nm  f=0.0088  <S**2>=0.000
      52 -> 55         0.65630
      52 -> 56         0.15591
 SavETr:  write IOETrn=   770 NScale= 10 NData=  16 NLR=1 NState=    6 LETran=     118.
 The selected state is a singlet.
 CISGrd: IGrad=1 NXY=2 DFT=T
 CISAX will form     1 AO SS matrices at one time.
 NMat=     1 NSing=     1 JSym2X= 0.
 Leave Link  914 at Fri Jan 23 20:42:49 2026, MaxMem=  2147483648 cpu:            7748.9 elap:             485.9
 (Enter /data/home/wyx/g16/l1002.exe)
 Minotr:  Closed shell wavefunction.
          Computing CIS/TDA/TD derivatives.
          Using Z-Vector for PSCF gradient.
          Skipping F1 and S1 gradient terms here.
 NEqPCM:  Using equilibrium solvation (IEInf=0, Eps=   7.4257, EpsInf=   1.9740)
          Frozen-core window.
          Direct CPHF calculation.
          Differentiating once with respect to electric field.
                with respect to dipole field.
          Electric field/nuclear overlap derivatives assumed to be zero.
          Requested convergence is 1.0D-10 RMS, and 1.0D-09 maximum.
          NewPWx=F KeepS1=T KeepF1=T KeepIn=T MapXYZ=F SortEE=F KeepMc=T.
 Two-electron integral symmetry used by symmetrizing perturbed Fock matrices.
          MDV=    2147483648 using IRadAn=       5.
          Solving linear equations separately, MaxMat=     384.
          There are     1 degrees of freedom in the 1st order CPHF.  IDoFFX=0 NUNeed=     1.
 FoFJK:  IHMeth= 1 ICntrl=       0 DoSepK=T KAlg= 0 I1Cent=           0 FoldK=F
 IRaf=         1 NMat=       1 IRICut=       1 DoRegI=T DoRafI=F ISym2E=-1 IDoP0=0 IntGTp=1.
 FoFCou: FMM=F IPFlag=           0 FMFlag=      100000 FMFlg1=           0
         NFxFlg=           0 DoJE=T BraDBF=F KetDBF=F FulRan=T
         wScrn=  0.000000 ICntrl=       500 IOpCl=  0 I1Cent=           0 NGrid=           0
         NMat0=    1 NMatS0=      1 NMatT0=    0 NMatD0=    1 NMtDS0=    0 NMtDT0=    0
 Petite list used in FoFCou.
 LinEq1:  Iter=  0 NonCon=     1 RMS=3.56D-03 Max=1.61D-01 NDo=     1
 AX will form     1 AO Fock derivatives at one time.
 LinEq1:  Iter=  1 NonCon=     1 RMS=1.45D-03 Max=7.88D-02 NDo=     1
 LinEq1:  Iter=  2 NonCon=     1 RMS=7.10D-04 Max=3.36D-02 NDo=     1
 LinEq1:  Iter=  3 NonCon=     1 RMS=3.95D-04 Max=1.82D-02 NDo=     1
 LinEq1:  Iter=  4 NonCon=     1 RMS=1.77D-04 Max=7.61D-03 NDo=     1
 LinEq1:  Iter=  5 NonCon=     1 RMS=8.37D-05 Max=3.31D-03 NDo=     1
 LinEq1:  Iter=  6 NonCon=     1 RMS=4.99D-05 Max=2.33D-03 NDo=     1
 LinEq1:  Iter=  7 NonCon=     1 RMS=2.49D-05 Max=1.38D-03 NDo=     1
 LinEq1:  Iter=  8 NonCon=     1 RMS=1.18D-05 Max=4.17D-04 NDo=     1
 LinEq1:  Iter=  9 NonCon=     1 RMS=5.87D-06 Max=1.92D-04 NDo=     1
 LinEq1:  Iter= 10 NonCon=     1 RMS=3.25D-06 Max=8.96D-05 NDo=     1
 LinEq1:  Iter= 11 NonCon=     1 RMS=1.97D-06 Max=5.40D-05 NDo=     1
 LinEq1:  Iter= 12 NonCon=     1 RMS=8.39D-07 Max=1.45D-05 NDo=     1
 LinEq1:  Iter= 13 NonCon=     1 RMS=3.13D-07 Max=7.23D-06 NDo=     1
 LinEq1:  Iter= 14 NonCon=     1 RMS=1.36D-07 Max=4.17D-06 NDo=     1
 LinEq1:  Iter= 15 NonCon=     1 RMS=7.75D-08 Max=2.65D-06 NDo=     1
 LinEq1:  Iter= 16 NonCon=     1 RMS=2.75D-08 Max=1.02D-06 NDo=     1
 LinEq1:  Iter= 17 NonCon=     1 RMS=9.36D-09 Max=3.49D-07 NDo=     1
 LinEq1:  Iter= 18 NonCon=     1 RMS=4.48D-09 Max=8.71D-08 NDo=     1
 LinEq1:  Iter= 19 NonCon=     1 RMS=1.84D-09 Max=4.58D-08 NDo=     1
 LinEq1:  Iter= 20 NonCon=     1 RMS=5.38D-10 Max=7.93D-09 NDo=     1
 LinEq1:  Iter= 21 NonCon=     1 RMS=2.36D-10 Max=4.80D-09 NDo=     1
 LinEq1:  Iter= 22 NonCon=     1 RMS=8.43D-11 Max=2.05D-09 NDo=     1
 LinEq1:  Iter= 23 NonCon=     0 RMS=2.00D-11 Max=4.76D-10 NDo=     1
 Linear equations converged to 1.000D-10 1.000D-09 after    23 iterations.
 PCM Corrected Linear-Response - Equilibrium solvation:
 Corrected transition energy               =    3.3845          eV
 Total energy after correction             = -633.203184069     a.u.
 NEqPCM:  Using non-equilibrium solvation (IEInf=1, Eps=   7.4257, EpsInf=   1.9740)
 Inv3:  Mode=1 IEnd=    13330992.
 Iteration    1 A*A^-1 deviation from unit magnitude is 3.11D-15 for    581.
 Iteration    1 A*A^-1 deviation from orthogonality  is 1.69D-15 for   1903   1459.
 Iteration    1 A^-1*A deviation from unit magnitude is 3.11D-15 for    581.
 Iteration    1 A^-1*A deviation from orthogonality  is 1.86D-15 for    572    399.
 NEqSol: Computing the dynamic-inertial partition of the PCM polarization charges.
 End of Minotr F.D. properties file   721 does not exist.
 End of Minotr F.D. properties file   722 does not exist.
 End of Minotr F.D. properties file   788 does not exist.
 Leave Link 1002 at Fri Jan 23 20:44:49 2026, MaxMem=  2147483648 cpu:            1895.2 elap:             119.3
 (Enter /data/home/wyx/g16/l601.exe)
 Copying SCF densities to generalized density rwf, IOpCl= 0 IROHF=0.

 **********************************************************************

            Population analysis using the CI density.

 **********************************************************************

 Orbital symmetries:
       Occupied  (A) (A) (A) (A) (A) (A) (A) (A) (A) (A) (A) (A)
                 (A) (A) (A) (A) (A) (A) (A) (A) (A) (A) (A) (A)
                 (A) (A) (A) (A) (A) (A) (A) (A) (A) (A) (A) (A)
                 (A) (A) (A) (A) (A) (A) (A) (A) (A) (A) (A) (A)
                 (A) (A) (A) (A)
       Virtual   (A) (A) (A) (A) (A) (A) (A) (A) (A) (A) (A) (A)
                 (A) (A) (A) (A) (A) (A) (A) (A) (A) (A) (A) (A)
                 (A) (A) (A) (A) (A) (A) (A) (A) (A) (A) (A) (A)
                 (A) (A) (A) (A) (A) (A) (A) (A) (A) (A) (A) (A)
                 (A) (A) (A) (A) (A) (A) (A) (A) (A) (A) (A) (A)
                 (A) (A) (A) (A) (A) (A) (A) (A) (A) (A) (A) (A)
                 (A) (A) (A) (A) (A) (A) (A) (A) (A) (A) (A) (A)
                 (A) (A) (A) (A) (A) (A) (A) (A) (A) (A) (A) (A)
                 (A) (A) (A) (A) (A) (A) (A) (A) (A) (A) (A) (A)
                 (A) (A) (A) (A) (A) (A) (A) (A) (A) (A) (A) (A)
                 (A) (A) (A) (A) (A) (A) (A) (A) (A) (A) (A) (A)
                 (A) (A) (A) (A) (A) (A) (A) (A) (A) (A) (A) (A)
                 (A) (A) (A) (A) (A) (A) (A) (A) (A) (A) (A) (A)
                 (A) (A) (A) (A) (A) (A) (A) (A) (A) (A) (A) (A)
                 (A) (A) (A) (A) (A) (A) (A) (A) (A) (A) (A) (A)
                 (A) (A) (A) (A) (A) (A) (A) (A) (A) (A) (A) (A)
                 (A) (A) (A) (A) (A) (A) (A) (A) (A) (A) (A) (A)
                 (A) (A) (A) (A) (A) (A) (A) (A) (A) (A) (A) (A)
                 (A) (A) (A) (A) (A) (A) (A) (A) (A) (A) (A) (A)
                 (A) (A) (A) (A) (A) (A) (A) (A) (A) (A) (A) (A)
                 (A) (A) (A) (A) (A) (A) (A) (A) (A) (A) (A) (A)
                 (A) (A) (A) (A) (A) (A) (A) (A) (A) (A) (A) (A)
                 (A) (A) (A) (A) (A) (A) (A) (A) (A) (A) (A) (A)
                 (A) (A) (A) (A) (A) (A) (A) (A) (A) (A) (A) (A)
                 (A) (A) (A) (A) (A) (A) (A) (A) (A) (A) (A) (A)
                 (A) (A) (A) (A)
 The electronic state is 1-A.
 Alpha  occ. eigenvalues --  -19.17839 -19.17167 -14.44324 -10.33396 -10.32896
 Alpha  occ. eigenvalues --  -10.32275 -10.31675 -10.26004 -10.25158 -10.24846
 Alpha  occ. eigenvalues --  -10.24649 -10.24528 -10.24250 -10.23599  -1.11832
 Alpha  occ. eigenvalues --   -1.11360  -1.07867  -0.91346  -0.90363  -0.83902
 Alpha  occ. eigenvalues --   -0.82614  -0.81662  -0.78553  -0.73978  -0.71523
 Alpha  occ. eigenvalues --   -0.68632  -0.61614  -0.58272  -0.56872  -0.55191
 Alpha  occ. eigenvalues --   -0.54616  -0.54008  -0.52597  -0.51895  -0.50827
 Alpha  occ. eigenvalues --   -0.49900  -0.49539  -0.49212  -0.48643  -0.48130
 Alpha  occ. eigenvalues --   -0.46981  -0.45292  -0.45169  -0.43626  -0.43128
 Alpha  occ. eigenvalues --   -0.42327  -0.42155  -0.41843  -0.32753  -0.32195
 Alpha  occ. eigenvalues --   -0.31178  -0.25798
 Alpha virt. eigenvalues --   -0.02568   0.02558   0.06280   0.08064   0.08476
 Alpha virt. eigenvalues --    0.09961   0.10733   0.11853   0.12589   0.13516
 Alpha virt. eigenvalues --    0.14066   0.14859   0.15620   0.16194   0.16921
 Alpha virt. eigenvalues --    0.17545   0.17845   0.18007   0.18162   0.19203
 Alpha virt. eigenvalues --    0.19923   0.22101   0.22807   0.23430   0.23749
 Alpha virt. eigenvalues --    0.23935   0.24829   0.25616   0.26077   0.26535
 Alpha virt. eigenvalues --    0.26981   0.27595   0.28915   0.28973   0.30125
 Alpha virt. eigenvalues --    0.31701   0.31965   0.32557   0.33564   0.34412
 Alpha virt. eigenvalues --    0.35161   0.35995   0.36693   0.38155   0.38677
 Alpha virt. eigenvalues --    0.39922   0.40985   0.41581   0.42089   0.42632
 Alpha virt. eigenvalues --    0.44017   0.44470   0.45519   0.46125   0.46296
 Alpha virt. eigenvalues --    0.47291   0.47714   0.48125   0.48228   0.49084
 Alpha virt. eigenvalues --    0.49481   0.50528   0.50879   0.51409   0.51668
 Alpha virt. eigenvalues --    0.52792   0.53127   0.53421   0.54100   0.54292
 Alpha virt. eigenvalues --    0.54533   0.55787   0.56167   0.56598   0.58320
 Alpha virt. eigenvalues --    0.58724   0.59139   0.60901   0.61078   0.62769
 Alpha virt. eigenvalues --    0.63456   0.65738   0.66238   0.66456   0.67954
 Alpha virt. eigenvalues --    0.68622   0.70093   0.71167   0.72136   0.72819
 Alpha virt. eigenvalues --    0.73237   0.73993   0.74773   0.75944   0.77850
 Alpha virt. eigenvalues --    0.78464   0.79845   0.82438   0.85066   0.85643
 Alpha virt. eigenvalues --    0.89837   0.93797   1.00398   1.01919   1.23798
 Alpha virt. eigenvalues --    1.25354   1.27108   1.27865   1.29442   1.31374
 Alpha virt. eigenvalues --    1.32608   1.32980   1.34050   1.34887   1.36069
 Alpha virt. eigenvalues --    1.36499   1.37392   1.38325   1.39107   1.39910
 Alpha virt. eigenvalues --    1.40016   1.40417   1.40921   1.41485   1.41768
 Alpha virt. eigenvalues --    1.43395   1.44097   1.44363   1.45131   1.47195
 Alpha virt. eigenvalues --    1.48082   1.49349   1.49657   1.50374   1.51141
 Alpha virt. eigenvalues --    1.51796   1.52442   1.53284   1.54692   1.57883
 Alpha virt. eigenvalues --    1.58417   1.60662   1.60708   1.61371   1.62361
 Alpha virt. eigenvalues --    1.62728   1.63389   1.64179   1.64875   1.65770
 Alpha virt. eigenvalues --    1.66896   1.67266   1.67693   1.68302   1.68460
 Alpha virt. eigenvalues --    1.68826   1.69885   1.70343   1.71732   1.72327
 Alpha virt. eigenvalues --    1.73641   1.75190   1.76133   1.76602   1.78788
 Alpha virt. eigenvalues --    1.80471   1.83009   1.84245   1.86086   1.86555
 Alpha virt. eigenvalues --    1.86862   1.87621   1.88561   1.88968   1.90701
 Alpha virt. eigenvalues --    1.91244   1.94574   1.95144   1.98618   1.99766
 Alpha virt. eigenvalues --    2.01117   2.03874   2.04909   2.06651   2.09559
 Alpha virt. eigenvalues --    2.11091   2.12704   2.14841   2.17141   2.19609
 Alpha virt. eigenvalues --    2.20213   2.21372   2.21905   2.22924   2.26099
 Alpha virt. eigenvalues --    2.27167   2.27564   2.29265   2.31030   2.31932
 Alpha virt. eigenvalues --    2.33534   2.34499   2.36658   2.37459   2.38272
 Alpha virt. eigenvalues --    2.39525   2.40263   2.41636   2.43440   2.44911
 Alpha virt. eigenvalues --    2.46047   2.47886   2.50171   2.50666   2.51778
 Alpha virt. eigenvalues --    2.52270   2.53863   2.54976   2.56795   2.58331
 Alpha virt. eigenvalues --    2.59025   2.60414   2.61385   2.62374   2.62899
 Alpha virt. eigenvalues --    2.64537   2.65822   2.66945   2.67434   2.68905
 Alpha virt. eigenvalues --    2.71563   2.72021   2.72955   2.73858   2.75280
 Alpha virt. eigenvalues --    2.76000   2.76577   2.77416   2.78032   2.79455
 Alpha virt. eigenvalues --    2.80710   2.81737   2.83404   2.83713   2.84513
 Alpha virt. eigenvalues --    2.85592   2.86359   2.88158   2.90060   2.91864
 Alpha virt. eigenvalues --    2.97739   2.99958   3.00751   3.04835   3.10631
 Alpha virt. eigenvalues --    3.12400   3.15736   3.16984   3.17633   3.20850
 Alpha virt. eigenvalues --    3.21470   3.22768   3.24745   3.26274   3.27179
 Alpha virt. eigenvalues --    3.27645   3.29858   3.33422   3.34653   3.36683
 Alpha virt. eigenvalues --    3.37327   3.38836   3.39895   3.40330   3.41848
 Alpha virt. eigenvalues --    3.42515   3.44742   3.45517   3.47155   3.48111
 Alpha virt. eigenvalues --    3.49235   3.49651   3.55236   3.58473   3.59942
 Alpha virt. eigenvalues --    3.60634   3.90416   3.99999   4.34156   4.36499
 Alpha virt. eigenvalues --   21.64862  21.80016  22.08409  22.10978  22.11856
 Alpha virt. eigenvalues --   22.14941  22.15344  22.18702  22.20571  22.24774
 Alpha virt. eigenvalues --   22.29606  31.92583  43.63347  43.65973
          Condensed to atoms (all electrons):
               1          2          3          4          5          6
     1  O    7.993107  -0.000000  -0.000274   0.000020   0.022649   0.022826
     2  O   -0.000000   8.002168   0.000244   0.000035  -0.208478   0.000931
     3  N   -0.000274   0.000244   6.203019   0.367032  -0.088900   0.349854
     4  H    0.000020   0.000035   0.367032   0.401726   0.016697  -0.043785
     5  C    0.022649  -0.208478  -0.088900   0.016697   7.244704   0.003796
     6  C    0.022826   0.000931   0.349854  -0.043785   0.003796   6.028058
     7  C   -0.000610  -0.028746   0.417982  -0.038236   0.139307  -0.212266
     8  C   -0.000253   0.691765   0.004366  -0.000483  -0.287346   0.031002
     9  C   -0.023592   0.020503   0.001946  -0.001090  -0.563478  -0.164466
    10  H    0.015085  -0.000179  -0.001322   0.000023  -0.087498   0.018935
    11  H    0.003050   0.000037   0.001202   0.000048  -0.017361  -0.009746
    12  C   -0.246491  -0.002005  -0.049276   0.014666   0.043280  -0.375481
    13  C    0.695915  -0.000016   0.000022   0.000650   0.089014   0.138098
    14  C   -0.000006  -0.010120  -0.039828  -0.010135  -0.086214   0.013823
    15  H   -0.000000   0.004494   0.003907   0.001896   0.021865   0.006473
    16  H   -0.000000  -0.000952   0.000324   0.000770   0.001318  -0.000737
    17  H    0.000000   0.000198  -0.002394   0.000928  -0.009905  -0.001175
    18  C    0.000103  -0.106026  -0.000601   0.000022  -0.290722  -0.000486
    19  H    0.000000   0.009923   0.000004  -0.000001   0.026486   0.000023
    20  H    0.000132   0.003762   0.000105   0.000001   0.044199  -0.001109
    21  H   -0.000131   0.002286   0.000009  -0.000001   0.004858   0.000242
    22  C   -0.110884   0.000000   0.000295   0.000131   0.005184  -0.008916
    23  H    0.002096   0.000000   0.000043  -0.000015  -0.000097   0.015757
    24  H    0.005070  -0.000000  -0.000090  -0.000058  -0.000775  -0.032693
    25  H    0.009690  -0.000000   0.000010  -0.000003  -0.000147  -0.001890
    26  C    0.000772   0.000004  -0.037106  -0.007140  -0.001258   0.175083
    27  H   -0.000066   0.000000  -0.002601   0.000531   0.000642  -0.050082
    28  H   -0.000387  -0.000000   0.002108   0.000780  -0.000275  -0.060985
    29  H    0.000017   0.000000   0.002250   0.001562  -0.000592  -0.057565
               7          8          9         10         11         12
     1  O   -0.000610  -0.000253  -0.023592   0.015085   0.003050  -0.246491
     2  O   -0.028746   0.691765   0.020503  -0.000179   0.000037  -0.002005
     3  N    0.417982   0.004366   0.001946  -0.001322   0.001202  -0.049276
     4  H   -0.038236  -0.000483  -0.001090   0.000023   0.000048   0.014666
     5  C    0.139307  -0.287346  -0.563478  -0.087498  -0.017361   0.043280
     6  C   -0.212266   0.031002  -0.164466   0.018935  -0.009746  -0.375481
     7  C    5.860364  -0.246444  -0.197454   0.014921  -0.005825   0.033935
     8  C   -0.246444   5.462603   0.149318  -0.007039   0.000028  -0.039985
     9  C   -0.197454   0.149318   6.583653   0.503335   0.342024  -0.064791
    10  H    0.014921  -0.007039   0.503335   0.459750  -0.023569  -0.106533
    11  H   -0.005825   0.000028   0.342024  -0.023569   0.487010   0.013550
    12  C    0.033935  -0.039985  -0.064791  -0.106533   0.013550   7.575673
    13  C    0.012427  -0.007071  -0.268401   0.007142  -0.001651  -0.421627
    14  C    0.274686  -0.033961   0.009930   0.000321  -0.000683  -0.003292
    15  H   -0.081556   0.006666   0.000082   0.000000   0.000036  -0.001543
    16  H   -0.035932  -0.006730  -0.000823  -0.000053   0.000150   0.000221
    17  H   -0.035709  -0.000537   0.001310   0.000062  -0.000053   0.000093
    18  C    0.007594   0.303064  -0.005544   0.004972  -0.008140  -0.007419
    19  H    0.001552  -0.051190  -0.002228   0.000636  -0.000084  -0.000553
    20  H    0.002594  -0.066936  -0.007332  -0.004312  -0.000375   0.007342
    21  H   -0.000833  -0.036196  -0.009717  -0.002206   0.001048  -0.000598
    22  C   -0.000344  -0.000029  -0.000715   0.001194   0.001464  -0.286983
    23  H   -0.000024   0.000004  -0.003801  -0.000109   0.000069  -0.012780
    24  H    0.000063  -0.000007   0.003679  -0.000124  -0.000132   0.073319
    25  H    0.000030   0.000004   0.001761  -0.000131  -0.000033   0.024609
    26  C    0.005812   0.000413   0.023498  -0.000027  -0.000505  -0.074801
    27  H   -0.000033  -0.000029  -0.001994   0.000019  -0.000016  -0.016357
    28  H   -0.000435   0.000001   0.001763   0.000008  -0.000009   0.000722
    29  H    0.003841   0.000009  -0.000693  -0.000000   0.000047   0.023683
              13         14         15         16         17         18
     1  O    0.695915  -0.000006  -0.000000  -0.000000   0.000000   0.000103
     2  O   -0.000016  -0.010120   0.004494  -0.000952   0.000198  -0.106026
     3  N    0.000022  -0.039828   0.003907   0.000324  -0.002394  -0.000601
     4  H    0.000650  -0.010135   0.001896   0.000770   0.000928   0.000022
     5  C    0.089014  -0.086214   0.021865   0.001318  -0.009905  -0.290722
     6  C    0.138098   0.013823   0.006473  -0.000737  -0.001175  -0.000486
     7  C    0.012427   0.274686  -0.081556  -0.035932  -0.035709   0.007594
     8  C   -0.007071  -0.033961   0.006666  -0.006730  -0.000537   0.303064
     9  C   -0.268401   0.009930   0.000082  -0.000823   0.001310  -0.005544
    10  H    0.007142   0.000321   0.000000  -0.000053   0.000062   0.004972
    11  H   -0.001651  -0.000683   0.000036   0.000150  -0.000053  -0.008140
    12  C   -0.421627  -0.003292  -0.001543   0.000221   0.000093  -0.007419
    13  C    5.540466  -0.000085  -0.000026   0.000007  -0.000040   0.000770
    14  C   -0.000085   5.040081   0.382949   0.422270   0.420394   0.001824
    15  H   -0.000026   0.382949   0.589588  -0.027732  -0.027057   0.000333
    16  H    0.000007   0.422270  -0.027732   0.517816  -0.030657  -0.000048
    17  H   -0.000040   0.420394  -0.027057  -0.030657   0.525175  -0.000185
    18  C    0.000770   0.001824   0.000333  -0.000048  -0.000185   5.405289
    19  H   -0.000029   0.000053  -0.000007  -0.000013   0.000006   0.383862
    20  H    0.000538   0.000100  -0.000021  -0.000061   0.000011   0.374959
    21  H    0.000144  -0.000380  -0.000007   0.000049  -0.000051   0.398205
    22  C    0.294696  -0.000015   0.000002  -0.000000   0.000000   0.000013
    23  H   -0.029554  -0.000001   0.000000   0.000000  -0.000000  -0.000003
    24  H   -0.097363  -0.000000   0.000000   0.000000   0.000000   0.000003
    25  H   -0.038493   0.000001   0.000000  -0.000000   0.000000   0.000001
    26  C   -0.048456   0.000703   0.000290   0.000032  -0.000126   0.000031
    27  H    0.005969  -0.000322   0.000006   0.000010  -0.000040  -0.000001
    28  H   -0.002503   0.000093  -0.000009  -0.000004   0.000006   0.000001
    29  H   -0.000379   0.000060   0.000055  -0.000010   0.000011   0.000000
              19         20         21         22         23         24
     1  O    0.000000   0.000132  -0.000131  -0.110884   0.002096   0.005070
     2  O    0.009923   0.003762   0.002286   0.000000   0.000000  -0.000000
     3  N    0.000004   0.000105   0.000009   0.000295   0.000043  -0.000090
     4  H   -0.000001   0.000001  -0.000001   0.000131  -0.000015  -0.000058
     5  C    0.026486   0.044199   0.004858   0.005184  -0.000097  -0.000775
     6  C    0.000023  -0.001109   0.000242  -0.008916   0.015757  -0.032693
     7  C    0.001552   0.002594  -0.000833  -0.000344  -0.000024   0.000063
     8  C   -0.051190  -0.066936  -0.036196  -0.000029   0.000004  -0.000007
     9  C   -0.002228  -0.007332  -0.009717  -0.000715  -0.003801   0.003679
    10  H    0.000636  -0.004312  -0.002206   0.001194  -0.000109  -0.000124
    11  H   -0.000084  -0.000375   0.001048   0.001464   0.000069  -0.000132
    12  C   -0.000553   0.007342  -0.000598  -0.286983  -0.012780   0.073319
    13  C   -0.000029   0.000538   0.000144   0.294696  -0.029554  -0.097363
    14  C    0.000053   0.000100  -0.000380  -0.000015  -0.000001  -0.000000
    15  H   -0.000007  -0.000021  -0.000007   0.000002   0.000000   0.000000
    16  H   -0.000013  -0.000061   0.000049  -0.000000   0.000000   0.000000
    17  H    0.000006   0.000011  -0.000051   0.000000  -0.000000   0.000000
    18  C    0.383862   0.374959   0.398205   0.000013  -0.000003   0.000003
    19  H    0.513159  -0.020259  -0.012918  -0.000001  -0.000000   0.000000
    20  H   -0.020259   0.547636  -0.028270   0.000016  -0.000000  -0.000000
    21  H   -0.012918  -0.028270   0.516769  -0.000001   0.000001  -0.000000
    22  C   -0.000001   0.000016  -0.000001   5.464164   0.403265   0.391848
    23  H   -0.000000  -0.000000   0.000001   0.403265   0.510637  -0.027997
    24  H    0.000000  -0.000000  -0.000000   0.391848  -0.027997   0.552441
    25  H    0.000000   0.000000  -0.000002   0.370130  -0.012413  -0.020961
    26  C    0.000001  -0.000015   0.000003  -0.030897  -0.013821   0.015455
    27  H   -0.000000  -0.000000   0.000001  -0.011121   0.002522  -0.002363
    28  H    0.000000   0.000000  -0.000000   0.006498  -0.003482  -0.009285
    29  H    0.000000  -0.000000  -0.000000   0.001915  -0.000005   0.000804
              25         26         27         28         29
     1  O    0.009690   0.000772  -0.000066  -0.000387   0.000017
     2  O   -0.000000   0.000004   0.000000  -0.000000   0.000000
     3  N    0.000010  -0.037106  -0.002601   0.002108   0.002250
     4  H   -0.000003  -0.007140   0.000531   0.000780   0.001562
     5  C   -0.000147  -0.001258   0.000642  -0.000275  -0.000592
     6  C   -0.001890   0.175083  -0.050082  -0.060985  -0.057565
     7  C    0.000030   0.005812  -0.000033  -0.000435   0.003841
     8  C    0.000004   0.000413  -0.000029   0.000001   0.000009
     9  C    0.001761   0.023498  -0.001994   0.001763  -0.000693
    10  H   -0.000131  -0.000027   0.000019   0.000008  -0.000000
    11  H   -0.000033  -0.000505  -0.000016  -0.000009   0.000047
    12  C    0.024609  -0.074801  -0.016357   0.000722   0.023683
    13  C   -0.038493  -0.048456   0.005969  -0.002503  -0.000379
    14  C    0.000001   0.000703  -0.000322   0.000093   0.000060
    15  H    0.000000   0.000290   0.000006  -0.000009   0.000055
    16  H   -0.000000   0.000032   0.000010  -0.000004  -0.000010
    17  H    0.000000  -0.000126  -0.000040   0.000006   0.000011
    18  C    0.000001   0.000031  -0.000001   0.000001   0.000000
    19  H    0.000000   0.000001  -0.000000   0.000000   0.000000
    20  H    0.000000  -0.000015  -0.000000   0.000000  -0.000000
    21  H   -0.000002   0.000003   0.000001  -0.000000  -0.000000
    22  C    0.370130  -0.030897  -0.011121   0.006498   0.001915
    23  H   -0.012413  -0.013821   0.002522  -0.003482  -0.000005
    24  H   -0.020961   0.015455  -0.002363  -0.009285   0.000804
    25  H    0.510969   0.001680  -0.000387   0.001433  -0.000025
    26  C    0.001680   5.237542   0.433773   0.429930   0.394790
    27  H   -0.000387   0.433773   0.513967  -0.035443  -0.022420
    28  H    0.001433   0.429930  -0.035443   0.524170  -0.022478
    29  H   -0.000025   0.394790  -0.022420  -0.022478   0.528506
 Mulliken charges:
               1
     1  O   -0.387839
     2  O   -0.379824
     3  N   -0.132332
     4  H    0.293432
     5  C   -0.020953
     6  C    0.216481
     7  C    0.109341
     8  C    0.134995
     9  C   -0.326682
    10  H    0.206699
    11  H    0.218419
    12  C   -0.100575
    13  C    0.129835
    14  C   -0.382245
    15  H    0.119316
    16  H    0.160787
    17  H    0.159737
    18  C   -0.461872
    19  H    0.151579
    20  H    0.147296
    21  H    0.167698
    22  C   -0.490908
    23  H    0.169708
    24  H    0.149166
    25  H    0.154167
    26  C   -0.505659
    27  H    0.185838
    28  H    0.167780
    29  H    0.146616
 Sum of Mulliken charges =  -0.00000
 Mulliken charges with hydrogens summed into heavy atoms:
               1
     1  O   -0.387839
     2  O   -0.379824
     3  N    0.161100
     5  C   -0.020953
     6  C    0.216481
     7  C    0.109341
     8  C    0.134995
     9  C    0.098436
    12  C   -0.100575
    13  C    0.129835
    14  C    0.057595
    18  C    0.004701
    22  C   -0.017867
    26  C   -0.005426
 Electronic spatial extent (au):  <R**2>=           3194.4212
 Charge=             -0.0000 electrons
 Dipole moment (field-independent basis, Debye):
    X=              3.2811    Y=              7.5161    Z=             -0.5830  Tot=              8.2217
 Quadrupole moment (field-independent basis, Debye-Ang):
   XX=           -104.2392   YY=            -79.1837   ZZ=            -84.7427
   XY=             12.7056   XZ=              5.0558   YZ=             -1.4908
 Traceless Quadrupole moment (field-independent basis, Debye-Ang):
   XX=            -14.8506   YY=             10.2049   ZZ=              4.6458
   XY=             12.7056   XZ=              5.0558   YZ=             -1.4908
 Octapole moment (field-independent basis, Debye-Ang**2):
  XXX=            100.7092  YYY=             66.6149  ZZZ=              0.2743  XYY=            -36.6515
  XXY=             31.5101  XXZ=             -9.1387  XZZ=              1.0754  YZZ=             -1.8721
  YYZ=              2.2810  XYZ=             -5.4392
 Hexadecapole moment (field-independent basis, Debye-Ang**3):
 XXXX=          -3111.7126 YYYY=          -1288.3207 ZZZZ=           -151.3697 XXXY=             38.2130
 XXXZ=             56.6616 YYYX=             87.9241 YYYZ=            -21.4966 ZZZX=             -3.3128
 ZZZY=              6.0722 XXYY=           -714.0301 XXZZ=           -491.8712 YYZZ=           -244.0524
 XXYZ=             -8.3580 YYXZ=              7.9196 ZZXY=             -1.1625
 N-N= 9.006936749039D+02 E-N=-3.277043379013D+03  KE= 6.308080418161D+02
 No NMR shielding tensors so no spin-rotation constants.
 Leave Link  601 at Fri Jan 23 20:44:50 2026, MaxMem=  2147483648 cpu:               1.8 elap:               0.1
 (Enter /data/home/wyx/g16/l9999.exe)
 Electronic transition elements 
                 1             2             3             4             5 
      1  -0.633207D+03 -0.633179D+03 -0.633174D+03 -0.633143D+03 -0.633126D+03
      2  -0.158535D+01 -0.999238D-01 -0.661132D-01  0.386296D+00  0.439340D+00
      3  -0.362349D+00 -0.547170D-01  0.121327D+00 -0.171305D+01 -0.142870D+01
      4  -0.122680D+00  0.323317D-01 -0.425619D-01  0.188971D+00  0.975774D-01
      5   0.182609D+00  0.137364D-01  0.990993D-02 -0.645350D-01 -0.862811D-01
      6   0.454412D-01  0.825244D-02 -0.171948D-01  0.304492D+00  0.283187D+00
      7   0.130924D-01 -0.200737D-02  0.299323D-02 -0.295868D-01 -0.203042D-01
      8   0.970612D-01  0.825804D+00  0.516483D+00  0.734288D-01  0.168130D+00
      9  -0.236992D-01  0.145706D+00 -0.879586D+00 -0.727384D-01 -0.341315D-01
     10  -0.145187D+01 -0.185680D+00 -0.122877D+00  0.878830D-01  0.310044D+00
     11   0.180304D+00  0.375145D-01  0.242330D-01 -0.117904D+01 -0.564547D+00
     12  -0.267004D+00 -0.295562D-01 -0.391628D-01  0.169331D+00  0.332363D+00
     13   0.163373D-01 -0.795524D-02  0.377941D-01  0.938231D-02  0.502768D-01
     14  -0.494511D+00 -0.383619D-01 -0.438820D-01 -0.436645D+00 -0.714909D-01
     15   0.738998D-01 -0.948645D-02  0.586895D-01 -0.283164D-01 -0.137826D-01
     16  -0.195230D-01  0.807879D-01  0.272513D-01 -0.697213D-01  0.366367D-01
                 6 
      1  -0.633109D+03
      2  -0.598854D-01
      3   0.232995D+00
      4   0.512266D-01
      5   0.134975D-01
      6  -0.484772D-01
      7  -0.308715D-01
      8  -0.780331D-02
      9  -0.143008D-01
     10   0.191985D-01
     11  -0.216201D+00
     12  -0.184942D+00
     13   0.165124D+00
     14  -0.172777D-02
     15  -0.342348D-01
     16   0.779325D-01
 1\1\GINC-CN012\SP\RCAM-B3LYP TD-FC\TZVP\C11H15N1O2\WYX\23-Jan-2026\0\\
 #p CAM-B3LYP TZVP em=gd3bj td(nstates=6,root=1) scrf=(Solvent=TetraHyd
 roFuran,CorrectedLR,NonEquilibrium=Save) Geom=Check Guess=Read\\Title 
 Card Required\\0,1\O,0,2.836832,-1.567195,0.12015\O,0,-3.422894,-1.628
 617,0.015858\N,0,-0.643136,1.512703,-0.316036\H,0,-0.952955,2.470835,-
 0.368901\C,0,-1.240696,-0.758744,-0.217253\C,0,0.695026,1.308926,-0.08
 3284\C,0,-1.618491,0.5552,-0.27764\C,0,-2.220632,-1.83308,-0.122747\C,
 0,0.212755,-1.103549,-0.308658\H,0,0.45117,-1.938208,0.351288\H,0,0.44
 8154,-1.494127,-1.310067\C,0,1.150319,0.023657,0.001442\C,0,2.514342,-
 0.39597,0.310416\C,0,-3.007478,1.092885,-0.311965\H,0,-3.009792,2.1569
 26,-0.541857\H,0,-3.612755,0.57366,-1.046856\H,0,-3.502717,0.949116,0.
 644992\C,0,-1.725627,-3.252464,-0.189204\H,0,-2.565384,-3.923776,-0.32
 968\H,0,-1.007624,-3.405413,-0.990465\H,0,-1.224877,-3.525203,0.738705
 \C,0,3.541426,0.539147,0.901073\H,0,4.053801,1.090261,0.110327\H,0,3.1
 15932,1.25815,1.596249\H,0,4.282359,-0.068284,1.415649\C,0,1.467761,2.
 582942,0.03117\H,0,1.574061,2.894015,1.070281\H,0,2.458425,2.500964,-0
 .39802\H,0,0.952695,3.385241,-0.494964\\Version=ES64L-G16RevA.03\State
 =1-A\HF=-633.3275636\RMSD=2.874e-09\Dipole=0.2509145,3.2139913,-0.2654
 423\Quadrupole=-15.5582415,11.471171,4.0870705,1.4525369,1.7178368,0.2
 322226\PG=C01 [X(C11H15N1O2)]\\@


 THE WORLD OF CHEMICAL REACTIONS IS LIKE A STAGE,
 ON WHICH SCENE AFTER SCENE IS CEASELESSLY PLAYED.
 THE ACTORS ON IT ARE THE ELEMENTS.
   -- CLEMENS WINKLER   BER. 30,13(1897)
 (DISCOVERER OF GERMANIUM, FEB 6, 1886)
 Job cpu time:       0 days  2 hours 42 minutes 21.7 seconds.
 Elapsed time:       0 days  0 hours 10 minutes 11.9 seconds.
 File lengths (MBytes):  RWF=    735 Int=      0 D2E=      0 Chk=     67 Scr=      1
 Normal termination of Gaussian 16 at Fri Jan 23 20:44:52 2026.
