 Entering Gaussian System, Link 0=g16
 Input=DDL-S2-cLR-gs-12.gjf
 Output=DDL-S2-cLR-gs-12.log
 Initial command:
 /data/home/wyx/g16/l1.exe "/scr/tmp/wyx/13106/Gau-1988004.inp" -scrdir="/scr/tmp/wyx/13106/"
 Entering Link 1 = /data/home/wyx/g16/l1.exe PID=   1988005.
  
 Copyright (c) 1988,1990,1992,1993,1995,1998,2003,2009,2016,
            Gaussian, Inc.  All Rights Reserved.
  
 This is part of the Gaussian(R) 16 program.  It is based on
 the Gaussian(R) 09 system (copyright 2009, Gaussian, Inc.),
 the Gaussian(R) 03 system (copyright 2003, Gaussian, Inc.),
 the Gaussian(R) 98 system (copyright 1998, Gaussian, Inc.),
 the Gaussian(R) 94 system (copyright 1995, Gaussian, Inc.),
 the Gaussian 92(TM) system (copyright 1992, Gaussian, Inc.),
 the Gaussian 90(TM) system (copyright 1990, Gaussian, Inc.),
 the Gaussian 88(TM) system (copyright 1988, Gaussian, Inc.),
 the Gaussian 86(TM) system (copyright 1986, Carnegie Mellon
 University), and the Gaussian 82(TM) system (copyright 1983,
 Carnegie Mellon University). Gaussian is a federally registered
 trademark of Gaussian, Inc.
  
 This software contains proprietary and confidential information,
 including trade secrets, belonging to Gaussian, Inc.
  
 This software is provided under written license and may be
 used, copied, transmitted, or stored only in accord with that
 written license.
  
 The following legend is applicable only to US Government
 contracts under FAR:
  
                    RESTRICTED RIGHTS LEGEND
  
 Use, reproduction and disclosure by the US Government is
 subject to restrictions as set forth in subparagraphs (a)
 and (c) of the Commercial Computer Software - Restricted
 Rights clause in FAR 52.227-19.
  
 Gaussian, Inc.
 340 Quinnipiac St., Bldg. 40, Wallingford CT 06492
  
  
 ---------------------------------------------------------------
 Warning -- This program may not be used in any manner that
 competes with the business of Gaussian, Inc. or will provide
 assistance to any competitor of Gaussian, Inc.  The licensee
 of this program is prohibited from giving any competitor of
 Gaussian, Inc. access to this program.  By using this program,
 the user acknowledges that Gaussian, Inc. is engaged in the
 business of creating and licensing software in the field of
 computational chemistry and represents and warrants to the
 licensee that it is not a competitor of Gaussian, Inc. and that
 it will not use this program in any manner prohibited above.
 ---------------------------------------------------------------
  

 Cite this work as:
 Gaussian 16, Revision A.03,
 M. J. Frisch, G. W. Trucks, H. B. Schlegel, G. E. Scuseria, 
 M. A. Robb, J. R. Cheeseman, G. Scalmani, V. Barone, 
 G. A. Petersson, H. Nakatsuji, X. Li, M. Caricato, A. V. Marenich, 
 J. Bloino, B. G. Janesko, R. Gomperts, B. Mennucci, H. P. Hratchian, 
 J. V. Ortiz, A. F. Izmaylov, J. L. Sonnenberg, D. Williams-Young, 
 F. Ding, F. Lipparini, F. Egidi, J. Goings, B. Peng, A. Petrone, 
 T. Henderson, D. Ranasinghe, V. G. Zakrzewski, J. Gao, N. Rega, 
 G. Zheng, W. Liang, M. Hada, M. Ehara, K. Toyota, R. Fukuda, 
 J. Hasegawa, M. Ishida, T. Nakajima, Y. Honda, O. Kitao, H. Nakai, 
 T. Vreven, K. Throssell, J. A. Montgomery, Jr., J. E. Peralta, 
 F. Ogliaro, M. J. Bearpark, J. J. Heyd, E. N. Brothers, K. N. Kudin, 
 V. N. Staroverov, T. A. Keith, R. Kobayashi, J. Normand, 
 K. Raghavachari, A. P. Rendell, J. C. Burant, S. S. Iyengar, 
 J. Tomasi, M. Cossi, J. M. Millam, M. Klene, C. Adamo, R. Cammi, 
 J. W. Ochterski, R. L. Martin, K. Morokuma, O. Farkas, 
 J. B. Foresman, and D. J. Fox, Gaussian, Inc., Wallingford CT, 2016.
 
 ******************************************
 Gaussian 16:  ES64L-G16RevA.03 25-Dec-2016
                23-Jan-2026 
 ******************************************
 %nprocshared=16
 Will use up to   16 processors via shared memory.
 %mem=16GB
 %oldchk=DDL-S2-cLR-12.chk
 %chk=DDL-S2-cLR-gs-12.chk
 Copying data from "DDL-S2-cLR-12.chk" to current chk file "DDL-S2-cLR-gs-12.chk"
 IOpt=  2 FromEx=T IUOpen= 4 IOptOp= 5 NList=   0 IFRang= 0 IUIn= 4 IUOut= 2.
 ----------------------------------------------------------------------
 #p CAM-B3LYP TZVP em=gd3bj scrf=(Solvent=TetraHydroFuran,NonEquilibriu
 m=Read) Geom=Check Guess=Read
 ----------------------------------------------------------------------
 1/29=2,38=1,172=1/1;
 2/12=2,40=1/2;
 3/5=19,7=101,11=2,14=-4,25=1,30=1,70=6002201,72=20,74=-40,116=-2,124=41/1,2,3;
 4/5=1/1;
 5/5=2,38=6,53=20/2;
 6/7=2,8=2,9=2,10=2,28=1/1;
 99/5=1,9=1/99;
 Leave Link    1 at Fri Jan 23 22:50:16 2026, MaxMem=  2147483648 cpu:               0.9 elap:               0.1
 (Enter /data/home/wyx/g16/l101.exe)
 -------------------
 Title Card Required
 -------------------
 Structure from the checkpoint file:  "DDL-S2-cLR-gs-12.chk"
 Charge =  0 Multiplicity = 1
 Z-Matrix found in chk file.
 O,0,2.836357,-1.566381,0.130446
 O,0,-3.421792,-1.626118,0.035495
 N,0,-0.64043,1.511966,-0.332319
 H,0,-0.949967,2.46982,-0.385617
 C,0,-1.239668,-0.758331,-0.219287
 C,0,0.697053,1.305756,-0.090736
 C,0,-1.616079,0.552338,-0.282568
 C,0,-2.221687,-1.831505,-0.115229
 C,0,0.215078,-1.106264,-0.323646
 H,0,0.456719,-1.94429,0.329808
 H,0,0.444809,-1.485486,-1.330139
 C,0,1.150681,0.02331,-0.003572
 C,0,2.513802,-0.395236,0.315459
 C,0,-3.00558,1.091293,-0.307278
 H,0,-3.008114,2.152041,-0.552675
 H,0,-3.620786,0.561461,-1.026322
 H,0,-3.487641,0.96226,0.658872
 C,0,-1.727244,-3.251228,-0.189604
 H,0,-2.570383,-3.922728,-0.309579
 H,0,-1.027384,-3.40283,-1.007673
 H,0,-1.203902,-3.520473,0.727154
 C,0,3.538268,0.540583,0.909717
 H,0,4.051458,1.093172,0.120607
 H,0,3.109912,1.258259,1.604516
 H,0,4.278866,-0.066402,1.425225
 C,0,1.46782,2.580997,0.032041
 H,0,1.556226,2.893582,1.072522
 H,0,2.465013,2.499853,-0.381636
 H,0,0.958596,3.38058,-0.503982
 Recover connectivity data from disk.
 ITRead=  0  0  0  0  0  0  0  0  0  0  0  0  0  0  0  0  0  0  0  0
 ITRead=  0  0  0  0  0  0  0  0  0
 MicOpt= -1 -1 -1 -1 -1 -1 -1 -1 -1 -1 -1 -1 -1 -1 -1 -1 -1 -1 -1 -1
 MicOpt= -1 -1 -1 -1 -1 -1 -1 -1 -1
 NAtoms=     29 NQM=       29 NQMF=       0 NMMI=      0 NMMIF=      0
                NMic=       0 NMicF=      0.
                    Isotopes and Nuclear Properties:
 (Nuclear quadrupole moments (NQMom) in fm**2, nuclear magnetic moments (NMagM)
  in nuclear magnetons)

  Atom         1           2           3           4           5           6           7           8           9          10
 IAtWgt=          16          16          14           1          12          12          12          12          12           1
 AtmWgt=  15.9949146  15.9949146  14.0030740   1.0078250  12.0000000  12.0000000  12.0000000  12.0000000  12.0000000   1.0078250
 NucSpn=           0           0           2           1           0           0           0           0           0           1
 AtZEff=   5.6000000   5.6000000   4.5500000   1.0000000   3.6000000   3.6000000   3.6000000   3.6000000   3.6000000   1.0000000
 NQMom=    0.0000000   0.0000000   2.0440000   0.0000000   0.0000000   0.0000000   0.0000000   0.0000000   0.0000000   0.0000000
 NMagM=    0.0000000   0.0000000   0.4037610   2.7928460   0.0000000   0.0000000   0.0000000   0.0000000   0.0000000   2.7928460
 AtZNuc=   8.0000000   8.0000000   7.0000000   1.0000000   6.0000000   6.0000000   6.0000000   6.0000000   6.0000000   1.0000000

  Atom        11          12          13          14          15          16          17          18          19          20
 IAtWgt=           1          12          12          12           1           1           1          12           1           1
 AtmWgt=   1.0078250  12.0000000  12.0000000  12.0000000   1.0078250   1.0078250   1.0078250  12.0000000   1.0078250   1.0078250
 NucSpn=           1           0           0           0           1           1           1           0           1           1
 AtZEff=   1.0000000   3.6000000   3.6000000   3.6000000   1.0000000   1.0000000   1.0000000   3.6000000   1.0000000   1.0000000
 NQMom=    0.0000000   0.0000000   0.0000000   0.0000000   0.0000000   0.0000000   0.0000000   0.0000000   0.0000000   0.0000000
 NMagM=    2.7928460   0.0000000   0.0000000   0.0000000   2.7928460   2.7928460   2.7928460   0.0000000   2.7928460   2.7928460
 AtZNuc=   1.0000000   6.0000000   6.0000000   6.0000000   1.0000000   1.0000000   1.0000000   6.0000000   1.0000000   1.0000000

  Atom        21          22          23          24          25          26          27          28          29
 IAtWgt=           1          12           1           1           1          12           1           1           1
 AtmWgt=   1.0078250  12.0000000   1.0078250   1.0078250   1.0078250  12.0000000   1.0078250   1.0078250   1.0078250
 NucSpn=           1           0           1           1           1           0           1           1           1
 AtZEff=   1.0000000   3.6000000   1.0000000   1.0000000   1.0000000   3.6000000   1.0000000   1.0000000   1.0000000
 NQMom=    0.0000000   0.0000000   0.0000000   0.0000000   0.0000000   0.0000000   0.0000000   0.0000000   0.0000000
 NMagM=    2.7928460   0.0000000   2.7928460   2.7928460   2.7928460   0.0000000   2.7928460   2.7928460   2.7928460
 AtZNuc=   1.0000000   6.0000000   1.0000000   1.0000000   1.0000000   6.0000000   1.0000000   1.0000000   1.0000000
 Leave Link  101 at Fri Jan 23 22:50:18 2026, MaxMem=  2147483648 cpu:               0.9 elap:               0.1
 (Enter /data/home/wyx/g16/l202.exe)
                          Input orientation:                          
 ---------------------------------------------------------------------
 Center     Atomic      Atomic             Coordinates (Angstroms)
 Number     Number       Type             X           Y           Z
 ---------------------------------------------------------------------
      1          8           0        2.836357   -1.566381    0.130446
      2          8           0       -3.421792   -1.626118    0.035495
      3          7           0       -0.640430    1.511966   -0.332319
      4          1           0       -0.949967    2.469820   -0.385617
      5          6           0       -1.239668   -0.758331   -0.219287
      6          6           0        0.697053    1.305756   -0.090736
      7          6           0       -1.616079    0.552338   -0.282568
      8          6           0       -2.221687   -1.831505   -0.115229
      9          6           0        0.215078   -1.106264   -0.323646
     10          1           0        0.456719   -1.944290    0.329808
     11          1           0        0.444809   -1.485486   -1.330139
     12          6           0        1.150681    0.023310   -0.003572
     13          6           0        2.513802   -0.395236    0.315459
     14          6           0       -3.005580    1.091293   -0.307278
     15          1           0       -3.008114    2.152041   -0.552675
     16          1           0       -3.620786    0.561461   -1.026322
     17          1           0       -3.487641    0.962260    0.658872
     18          6           0       -1.727244   -3.251228   -0.189604
     19          1           0       -2.570383   -3.922728   -0.309579
     20          1           0       -1.027384   -3.402830   -1.007673
     21          1           0       -1.203902   -3.520473    0.727154
     22          6           0        3.538268    0.540583    0.909717
     23          1           0        4.051458    1.093172    0.120607
     24          1           0        3.109912    1.258259    1.604516
     25          1           0        4.278866   -0.066402    1.425225
     26          6           0        1.467820    2.580997    0.032041
     27          1           0        1.556226    2.893582    1.072522
     28          1           0        2.465013    2.499853   -0.381636
     29          1           0        0.958596    3.380580   -0.503982
 ---------------------------------------------------------------------
                    Distance matrix (angstroms):
                    1          2          3          4          5
     1  O    0.000000
     2  O    6.259154   0.000000
     3  N    4.666735   4.209374   0.000000
     4  H    5.558191   4.802495   1.008037   0.000000
     5  C    4.170041   2.362125   2.350768   3.245389   0.000000
     6  C    3.588135   5.057342   1.374680   2.038302   2.833349
     7  C    4.948104   2.847356   1.369398   2.032501   1.365116
     8  C    5.070942   1.226847   3.704902   4.493526   1.458387
     9  C    2.699817   3.691349   2.754469   3.761588   1.499411
    10  H    2.417693   3.902653   3.686171   4.687746   2.141432
    11  H    2.803454   4.103089   3.340375   4.299066   2.144810
    12  C    2.320901   4.861034   2.352074   3.247167   2.524136
    13  C    1.228760   6.068338   3.742488   4.549478   3.808717
    14  C    6.432967   2.770388   2.402400   2.476291   2.558769
    15  H    6.960687   3.845980   2.462556   2.089225   3.421814
    16  H    6.896414   2.439786   3.204313   3.344490   2.839521
    17  H    6.831267   2.663200   3.064514   3.131052   2.963947
    18  C    4.875202   2.358632   4.887694   5.776934   2.540304
    19  H    5.914290   2.473538   5.767247   6.595165   3.434001
    20  H    4.426777   3.158812   4.976048   5.906011   2.767669
    21  H    4.527497   2.997667   5.173531   6.098061   2.920010
    22  C    2.353559   7.341750   4.466291   5.054117   5.078435
    23  H    2.924002   7.953065   4.732266   5.212070   5.616013
    24  H    3.197860   7.310582   4.228565   4.680932   5.129497
    25  H    2.450963   7.978985   5.457076   6.087057   5.799776
    26  C    4.368446   6.450437   2.391716   2.456113   4.306364
    27  H    4.734714   6.803218   2.950888   2.930315   4.777265
    28  H    4.115141   7.200841   3.259161   3.415114   4.936272
    29  H    5.329250   6.674268   2.465374   2.118043   4.695104
                    6          7          8          9         10
     6  C    0.000000
     7  C    2.440291   0.000000
     8  C    4.285096   2.465253   0.000000
     9  C    2.470706   2.470988   2.550928   0.000000
    10  H    3.285942   3.302219   2.717469   1.089807   0.000000
    11  H    3.064438   3.081784   2.950582   1.099824   1.722227
    12  C    1.363101   2.830666   3.850412   1.501245   2.112859
    13  C    2.521695   4.279188   4.967214   2.489608   2.575144
    14  C    3.715155   1.490569   3.032181   3.898995   4.648457
    15  H    3.828557   2.137702   4.083928   4.588897   5.437258
    16  H    4.480293   2.138248   2.917851   4.241334   4.974326
    17  H    4.265157   2.134734   3.163383   4.353649   4.910630
    18  C    5.162663   3.806326   1.505197   2.896800   2.597609
    19  H    6.169366   4.575767   2.128984   3.961245   3.672381
    20  H    5.097572   4.063950   2.166074   2.699226   2.473612
    21  H    5.251196   4.216304   2.144320   2.991002   2.323768
    22  C    3.107877   5.290461   6.313034   3.908565   4.000854
    23  H    3.367772   5.707541   6.925439   4.444400   4.710848
    24  H    2.949241   5.137548   6.397665   4.205810   4.349785
    25  H    4.124359   6.168450   6.909832   4.544693   4.397182
    26  C    1.495124   3.704709   5.753636   3.910469   4.646419
    27  H    2.147682   4.169078   6.165211   4.443729   5.016527
    28  H    2.153177   4.523046   6.387237   4.250841   4.928469
    29  H    2.131683   3.831048   6.118101   4.551605   5.413070
                   11         12         13         14         15
    11  H    0.000000
    12  C    2.129437   0.000000
    13  C    2.859610   1.461185   0.000000
    14  C    4.426197   4.302015   5.749882   0.000000
    15  H    5.075306   4.704103   6.142787   1.088766   0.000000
    16  H    4.561947   4.909432   6.352072   1.084539   1.769083
    17  H    5.041011   4.778545   6.162633   1.087418   1.764475
    18  C    3.022661   4.363446   5.137923   4.528298   5.564869
    19  H    4.009124   5.432419   6.219551   5.032873   6.095369
    20  H    2.438759   4.182179   4.830766   4.959935   5.914973
    21  H    3.330447   4.316992   4.874210   5.058110   6.088560
    22  C    4.323355   2.608110   1.509447   6.678795   6.898587
    23  H    4.664982   3.094274   2.148886   7.069998   7.170221
    24  H    4.821111   2.819509   2.179693   6.409530   6.548478
    25  H    4.930094   3.440211   2.110726   7.576607   7.869794
    26  C    4.408897   2.577520   3.167391   4.727120   4.534301
    27  H    5.117056   3.092072   3.508051   5.095308   4.901464
    28  H    4.567692   2.829075   2.978231   5.649510   5.486834
    29  H    4.962369   3.399790   4.164965   4.581945   4.152887
                   16         17         18         19         20
    16  H    0.000000
    17  H    1.737310   0.000000
    18  C    4.338455   4.644609   0.000000
    19  H    4.661010   5.063829   1.084523   0.000000
    20  H    4.737266   5.280554   1.087209   1.771574   0.000000
    21  H    5.057489   5.031404   1.089415   1.761787   1.747748
    22  C    7.416248   7.043020   6.581182   7.663122   6.330250
    23  H    7.775699   7.559423   7.236259   8.318238   6.876168
    24  H    7.260105   6.671549   6.852183   7.922887   6.757699
    25  H    8.295107   7.871726   6.987428   8.049410   6.723618
    26  C    5.576071   5.250697   6.653751   7.663043   6.566067
    27  H    6.053543   5.416798   7.080454   8.087100   7.116675
    28  H    6.419496   6.235458   7.119468   8.161492   6.886975
    29  H    5.402871   5.193219   7.161944   8.113556   7.086076
                   21         22         23         24         25
    21  H    0.000000
    22  C    6.246093   0.000000
    23  H    7.019432   1.091519   0.000000
    24  H    6.497310   1.086873   1.765148   0.000000
    25  H    6.517565   1.087504   1.760214   1.775761   0.000000
    26  C    6.696956   3.036504   2.982726   2.630357   4.105078
    27  H    6.991258   3.080844   3.220839   2.317593   4.037162
    28  H    7.136853   2.580350   2.178946   2.429455   3.624979
    29  H    7.335982   4.088867   3.897197   3.684857   5.160205
                   26         27         28         29
    26  C    0.000000
    27  H    1.090012   0.000000
    28  H    1.082639   1.759401   0.000000
    29  H    1.089019   1.754906   1.749269   0.000000
 Stoichiometry    C11H15NO2
 Framework group  C1[X(C11H15NO2)]
 Deg. of freedom    81
 Full point group                 C1      NOp   1
 RotChk:  IX=0 Diff= 3.10D-16
 Largest Abelian subgroup         C1      NOp   1
 Largest concise Abelian subgroup C1      NOp   1
                         Standard orientation:                         
 ---------------------------------------------------------------------
 Center     Atomic      Atomic             Coordinates (Angstroms)
 Number     Number       Type             X           Y           Z
 ---------------------------------------------------------------------
      1          8           0        2.287754   -2.278959   -0.210026
      2          8           0       -3.600861   -0.248228    0.404268
      3          7           0        0.023794    1.801838   -0.210493
      4          1           0        0.051432    2.809493   -0.208151
      5          6           0       -1.290927   -0.142404   -0.078058
      6          6           0        1.230594    1.148892   -0.126578
      7          6           0       -1.208013    1.220171   -0.070616
      8          6           0       -2.561540   -0.831978    0.114095
      9          6           0       -0.056610   -0.947711   -0.354061
     10          1           0       -0.047561   -1.854763    0.249971
     11          1           0       -0.069724   -1.322762   -1.387879
     12          6           0        1.231865   -0.214184   -0.118461
     13          6           0        2.398847   -1.080013    0.035004
     14          6           0       -2.329758    2.191062    0.073803
     15          1           0       -1.999193    3.204591   -0.147328
     16          1           0       -3.155991    1.938616   -0.581815
     17          1           0       -2.728162    2.173961    1.085465
     18          6           0       -2.584428   -2.328487   -0.045769
     19          1           0       -3.612025   -2.673182   -0.083447
     20          1           0       -2.061903   -2.656564   -0.940954
     21          1           0       -2.093725   -2.809103    0.799834
     22          6           0        3.732587   -0.574307    0.528797
     23          1           0        4.320515   -0.179130   -0.301618
     24          1           0        3.642690    0.203448    1.282660
     25          1           0        4.272857   -1.421844    0.944072
     26          6           0        2.394145    2.085789   -0.065193
     27          1           0        2.686044    2.290334    0.964896
     28          1           0        3.259126    1.701711   -0.590929
     29          1           0        2.133342    3.038850   -0.523035
 ---------------------------------------------------------------------
 Rotational constants (GHZ):           1.0791047           0.4906983           0.3460501
 Leave Link  202 at Fri Jan 23 22:50:19 2026, MaxMem=  2147483648 cpu:               0.0 elap:               0.0
 (Enter /data/home/wyx/g16/l301.exe)
 Standard basis: TZVP (5D, 7F)
 Ernie: Thresh=  0.10000D-02 Tol=  0.10000D-05 Strict=F.
 There are   370 symmetry adapted cartesian basis functions of A   symmetry.
 There are   356 symmetry adapted basis functions of A   symmetry.
   356 basis functions,   610 primitive gaussians,   370 cartesian basis functions
    52 alpha electrons       52 beta electrons
       nuclear repulsion energy       900.7808118532 Hartrees.
 IExCor=20419 DFT=T Ex+Corr=CAM-B3LYP ExCW=0 ScaHFX=  1.000000
 ScaDFX=  1.000000  1.000000  1.000000  0.810000 ScalE2=  1.000000  1.000000
 IRadAn=      5 IRanWt=     -1 IRanGd=            0 ICorTp=0 IEmpDi=141
 HFx  wShort=  0.000000 wLong=  0.330000 cFull=  0.190000 cShort=  0.000000 cLong=  0.460000
 DFx  wShort=  0.000000 wLong=  0.330000 cFull=  0.190000 cShort=  0.000000 cLong=  0.460000
 NAtoms=   29 NActive=   29 NUniq=   29 SFac= 1.00D+00 NAtFMM=   60 NAOKFM=F Big=F
 Integral buffers will be    131072 words long.
 Raffenetti 2 integral format.
 Two-electron integral symmetry is turned on.
 R6Disp:  Grimme-D3(BJ) Dispersion energy=       -0.0261955096 Hartrees.
 Nuclear repulsion after empirical dispersion term =      900.7546163436 Hartrees.
 ------------------------------------------------------------------------------
 Polarizable Continuum Model (PCM)
 =================================
 Model                : PCM.
 Atomic radii         : UFF (Universal Force Field).
 Polarization charges : Total charges.
 Charge compensation  : None.
 Solution method      : On-the-fly selection.
 Cavity type          : Scaled VdW (van der Waals Surface) (Alpha=1.100).
 Cavity algorithm     : GePol (No added spheres)
                        Default sphere list used, NSphG=   29.
                        Lebedev-Laikov grids with approx.  5.0 points / Ang**2.
                        Smoothing algorithm: York/Karplus (Gamma=1.0000).
                        Polarization charges: spherical gaussians, with
                                              point-specific exponents (IZeta= 3).
                        Self-potential: point-specific (ISelfS= 7).
                        Self-field    : sphere-specific E.n sum rule (ISelfD= 2).
 Solvent              : TetraHydroFuran, Eps=   7.425700 Eps(inf)=   1.974025
 ------------------------------------------------------------------------------
 GePol: Number of generator spheres                  =      29
 GePol: Total number of spheres                      =      29
 GePol: Number of exposed spheres                    =      29 (100.00%)
 GePol: Number of points                             =    2108
 GePol: Average weight of points                     =       0.13
 GePol: Minimum weight of points                     =   0.40D-09
 GePol: Maximum weight of points                     =    0.20577
 GePol: Number of points with low weight             =     149
 GePol: Fraction of low-weight points (<1% of avg)   =       7.07%
 GePol: Cavity surface area                          =    268.496 Ang**2
 GePol: Cavity volume                                =    286.515 Ang**3
 Leave Link  301 at Fri Jan 23 22:50:19 2026, MaxMem=  2147483648 cpu:               0.6 elap:               0.0
 (Enter /data/home/wyx/g16/l302.exe)
 NPDir=0 NMtPBC=     1 NCelOv=     1 NCel=       1 NClECP=     1 NCelD=      1
         NCelK=      1 NCelE2=     1 NClLst=     1 CellRange=     0.0.
 One-electron integrals computed using PRISM.
 One-electron integral symmetry used in STVInt
 NBasis=   356 RedAO= T EigKep=  4.70D-05  NBF=   356
 NBsUse=   356 1.00D-06 EigRej= -1.00D+00 NBFU=   356
 Precomputing XC quadrature grid using
 IXCGrd= 4 IRadAn=           5 IRanWt=          -1 IRanGd=           0 AccXCQ= 0.00D+00.
 Generated NRdTot=       0 NPtTot=           0 NUsed=           0 NTot=          32
 NSgBfM=   366   366   366   366   366 MxSgAt=    29 MxSgA2=    29.
 Leave Link  302 at Fri Jan 23 22:50:19 2026, MaxMem=  2147483648 cpu:               3.2 elap:               0.2
 (Enter /data/home/wyx/g16/l303.exe)
 DipDrv:  MaxL=1.
 Leave Link  303 at Fri Jan 23 22:50:19 2026, MaxMem=  2147483648 cpu:               0.6 elap:               0.1
 (Enter /data/home/wyx/g16/l401.exe)
 Initial guess from the checkpoint file:  "DDL-S2-cLR-gs-12.chk"
 B after Tr=    -0.000000   -0.000000   -0.000000
         Rot=    1.000000    0.000000    0.000000   -0.000000 Ang=   0.00 deg.
 Guess basis will be translated and rotated to current coordinates.
 JPrj=2 DoOrth=T DoCkMO=T.
 Leave Link  401 at Fri Jan 23 22:50:19 2026, MaxMem=  2147483648 cpu:               2.3 elap:               0.2
 (Enter /data/home/wyx/g16/l502.exe)
 Integral symmetry usage will be decided dynamically.
 Closed shell SCF:
 Using DIIS extrapolation, IDIIS=  1040.
 NGot=  2147483648 LenX=  2147200095 LenY=  2147062754
 Requested convergence on RMS density matrix=1.00D-08 within 128 cycles.
 Requested convergence on MAX density matrix=1.00D-06.
 Requested convergence on             energy=1.00D-06.
 No special actions if energy rises.
 Fock matrices will be formed incrementally for  20 cycles.

 Cycle   1  Pass 1  IDiag  1:
 FoFJK:  IHMeth= 1 ICntrl=       0 DoSepK=T KAlg= 0 I1Cent=           0 FoldK=F
 IRaf=         1 NMat=       1 IRICut=       1 DoRegI=T DoRafI=F ISym2E= 0 IDoP0=0 IntGTp=1.
 FoFCou: FMM=F IPFlag=           0 FMFlag=      100000 FMFlg1=           0
         NFxFlg=           0 DoJE=T BraDBF=F KetDBF=F FulRan=T
         wScrn=  0.000000 ICntrl=       500 IOpCl=  0 I1Cent=           0 NGrid=           0
         NMat0=    1 NMatS0=      1 NMatT0=    0 NMatD0=    1 NMtDS0=    0 NMtDT0=    0
 Symmetry not used in FoFCou.
 Inv3:  Mode=1 IEnd=    13330992.
 Iteration    1 A*A^-1 deviation from unit magnitude is 3.44D-15 for    752.
 Iteration    1 A*A^-1 deviation from orthogonality  is 1.70D-15 for   1314    435.
 Iteration    1 A^-1*A deviation from unit magnitude is 3.22D-15 for    752.
 Iteration    1 A^-1*A deviation from orthogonality  is 2.00D-15 for   1958    364.
 NEqPCM:  Using non-equilibrium solvation (IEInf=1, Eps=   7.4257, EpsInf=   1.9740)
 Inv3:  Mode=1 IEnd=    13330992.
 Iteration    1 A*A^-1 deviation from unit magnitude is 3.33D-15 for    509.
 Iteration    1 A*A^-1 deviation from orthogonality  is 1.67D-15 for   1956    381.
 Iteration    1 A^-1*A deviation from unit magnitude is 3.77D-15 for    509.
 Iteration    1 A^-1*A deviation from orthogonality  is 2.22D-15 for   2090    987.
 E= -633.326678298487    
 DIIS: error= 4.52D-04 at cycle   1 NSaved=   1.
 NSaved= 1 IEnMin= 1 EnMin= -633.326678298487     IErMin= 1 ErrMin= 4.52D-04
 ErrMax= 4.52D-04  0.00D+00 EMaxC= 1.00D-01 BMatC= 4.60D-05 BMatP= 4.60D-05
 IDIUse=3 WtCom= 9.95D-01 WtEn= 4.52D-03
 Coeff-Com:  0.100D+01
 Coeff-En:   0.100D+01
 Coeff:      0.100D+01
 Gap=     0.235 Goal=   None    Shift=    0.000
 RMSDP=2.70D-04 MaxDP=1.44D-02              OVMax= 7.51D-03

 Cycle   2  Pass 1  IDiag  1:
 RMSU=  2.68D-04    CP:  1.00D+00
 E= -633.326763436666     Delta-E=       -0.000085138179 Rises=F Damp=F
 DIIS: error= 3.33D-04 at cycle   2 NSaved=   2.
 NSaved= 2 IEnMin= 2 EnMin= -633.326763436666     IErMin= 2 ErrMin= 3.33D-04
 ErrMax= 3.33D-04  0.00D+00 EMaxC= 1.00D-01 BMatC= 4.37D-05 BMatP= 4.60D-05
 IDIUse=3 WtCom= 9.97D-01 WtEn= 3.33D-03
 Coeff-Com:  0.491D+00 0.509D+00
 Coeff-En:   0.000D+00 0.100D+01
 Coeff:      0.489D+00 0.511D+00
 Gap=     0.234 Goal=   None    Shift=    0.000
 RMSDP=7.17D-05 MaxDP=3.71D-03 DE=-8.51D-05 OVMax= 1.72D-03

 Cycle   3  Pass 1  IDiag  1:
 RMSU=  6.68D-05    CP:  1.00D+00  9.76D-01
 E= -633.326797127089     Delta-E=       -0.000033690423 Rises=F Damp=F
 DIIS: error= 1.29D-04 at cycle   3 NSaved=   3.
 NSaved= 3 IEnMin= 3 EnMin= -633.326797127089     IErMin= 3 ErrMin= 1.29D-04
 ErrMax= 1.29D-04  0.00D+00 EMaxC= 1.00D-01 BMatC= 5.85D-06 BMatP= 4.37D-05
 IDIUse=3 WtCom= 9.99D-01 WtEn= 1.29D-03
 Coeff-Com:  0.616D-01 0.246D+00 0.692D+00
 Coeff-En:   0.000D+00 0.334D-02 0.997D+00
 Coeff:      0.615D-01 0.246D+00 0.693D+00
 Gap=     0.234 Goal=   None    Shift=    0.000
 RMSDP=1.97D-05 MaxDP=9.81D-04 DE=-3.37D-05 OVMax= 1.08D-03

 Cycle   4  Pass 1  IDiag  1:
 RMSU=  1.50D-05    CP:  1.00D+00  9.98D-01  1.17D+00
 E= -633.326802133672     Delta-E=       -0.000005006583 Rises=F Damp=F
 DIIS: error= 4.22D-05 at cycle   4 NSaved=   4.
 NSaved= 4 IEnMin= 4 EnMin= -633.326802133672     IErMin= 4 ErrMin= 4.22D-05
 ErrMax= 4.22D-05  0.00D+00 EMaxC= 1.00D-01 BMatC= 4.43D-07 BMatP= 5.85D-06
 IDIUse=1 WtCom= 1.00D+00 WtEn= 0.00D+00
 Coeff-Com: -0.144D-01 0.210D-01 0.209D+00 0.785D+00
 Coeff:     -0.144D-01 0.210D-01 0.209D+00 0.785D+00
 Gap=     0.234 Goal=   None    Shift=    0.000
 RMSDP=1.29D-05 MaxDP=6.52D-04 DE=-5.01D-06 OVMax= 6.52D-04

 Cycle   5  Pass 1  IDiag  1:
 RMSU=  6.87D-06    CP:  1.00D+00  1.01D+00  1.32D+00  1.08D+00
 E= -633.326802763355     Delta-E=       -0.000000629684 Rises=F Damp=F
 DIIS: error= 1.44D-05 at cycle   5 NSaved=   5.
 NSaved= 5 IEnMin= 5 EnMin= -633.326802763355     IErMin= 5 ErrMin= 1.44D-05
 ErrMax= 1.44D-05  0.00D+00 EMaxC= 1.00D-01 BMatC= 1.24D-07 BMatP= 4.43D-07
 IDIUse=1 WtCom= 1.00D+00 WtEn= 0.00D+00
 Coeff-Com: -0.135D-01-0.292D-01-0.294D-02 0.361D+00 0.685D+00
 Coeff:     -0.135D-01-0.292D-01-0.294D-02 0.361D+00 0.685D+00
 Gap=     0.234 Goal=   None    Shift=    0.000
 RMSDP=5.11D-06 MaxDP=2.24D-04 DE=-6.30D-07 OVMax= 2.41D-04

 Cycle   6  Pass 1  IDiag  1:
 RMSU=  2.23D-06    CP:  1.00D+00  1.01D+00  1.37D+00  1.24D+00  1.07D+00
 E= -633.326802949340     Delta-E=       -0.000000185985 Rises=F Damp=F
 DIIS: error= 1.12D-05 at cycle   6 NSaved=   6.
 NSaved= 6 IEnMin= 6 EnMin= -633.326802949340     IErMin= 6 ErrMin= 1.12D-05
 ErrMax= 1.12D-05  0.00D+00 EMaxC= 1.00D-01 BMatC= 1.30D-08 BMatP= 1.24D-07
 IDIUse=1 WtCom= 1.00D+00 WtEn= 0.00D+00
 Coeff-Com: -0.873D-03-0.152D-01-0.245D-01 0.485D-02 0.188D+00 0.848D+00
 Coeff:     -0.873D-03-0.152D-01-0.245D-01 0.485D-02 0.188D+00 0.848D+00
 Gap=     0.234 Goal=   None    Shift=    0.000
 RMSDP=2.28D-06 MaxDP=8.20D-05 DE=-1.86D-07 OVMax= 1.93D-04

 Cycle   7  Pass 1  IDiag  1:
 RMSU=  1.00D-06    CP:  1.00D+00  1.01D+00  1.39D+00  1.31D+00  1.17D+00
                    CP:  1.23D+00
 E= -633.326802985812     Delta-E=       -0.000000036472 Rises=F Damp=F
 DIIS: error= 4.49D-06 at cycle   7 NSaved=   7.
 NSaved= 7 IEnMin= 7 EnMin= -633.326802985812     IErMin= 7 ErrMin= 4.49D-06
 ErrMax= 4.49D-06  0.00D+00 EMaxC= 1.00D-01 BMatC= 6.32D-09 BMatP= 1.30D-08
 IDIUse=1 WtCom= 1.00D+00 WtEn= 0.00D+00
 Coeff-Com:  0.234D-02-0.342D-02-0.808D-02-0.692D-01-0.846D-01 0.436D+00
 Coeff-Com:  0.727D+00
 Coeff:      0.234D-02-0.342D-02-0.808D-02-0.692D-01-0.846D-01 0.436D+00
 Coeff:      0.727D+00
 Gap=     0.234 Goal=   None    Shift=    0.000
 RMSDP=1.06D-06 MaxDP=4.40D-05 DE=-3.65D-08 OVMax= 9.84D-05

 Cycle   8  Pass 1  IDiag  1:
 RMSU=  3.81D-07    CP:  1.00D+00  1.01D+00  1.40D+00  1.34D+00  1.23D+00
                    CP:  1.45D+00  1.11D+00
 E= -633.326802997429     Delta-E=       -0.000000011617 Rises=F Damp=F
 DIIS: error= 1.57D-06 at cycle   8 NSaved=   8.
 NSaved= 8 IEnMin= 8 EnMin= -633.326802997429     IErMin= 8 ErrMin= 1.57D-06
 ErrMax= 1.57D-06  0.00D+00 EMaxC= 1.00D-01 BMatC= 6.17D-10 BMatP= 6.32D-09
 IDIUse=1 WtCom= 1.00D+00 WtEn= 0.00D+00
 Coeff-Com:  0.985D-03 0.454D-03 0.211D-02-0.229D-01-0.745D-01 0.119D-01
 Coeff-Com:  0.239D+00 0.843D+00
 Coeff:      0.985D-03 0.454D-03 0.211D-02-0.229D-01-0.745D-01 0.119D-01
 Coeff:      0.239D+00 0.843D+00
 Gap=     0.234 Goal=   None    Shift=    0.000
 RMSDP=4.41D-07 MaxDP=1.47D-05 DE=-1.16D-08 OVMax= 3.97D-05

 Cycle   9  Pass 1  IDiag  1:
 RMSU=  1.29D-07    CP:  1.00D+00  1.01D+00  1.41D+00  1.35D+00  1.23D+00
                    CP:  1.56D+00  1.30D+00  1.15D+00
 E= -633.326802998877     Delta-E=       -0.000000001448 Rises=F Damp=F
 DIIS: error= 5.73D-07 at cycle   9 NSaved=   9.
 NSaved= 9 IEnMin= 9 EnMin= -633.326802998877     IErMin= 9 ErrMin= 5.73D-07
 ErrMax= 5.73D-07  0.00D+00 EMaxC= 1.00D-01 BMatC= 7.41D-11 BMatP= 6.17D-10
 IDIUse=1 WtCom= 1.00D+00 WtEn= 0.00D+00
 Coeff-Com:  0.350D-04 0.534D-03 0.195D-02 0.317D-02-0.177D-01-0.586D-01
 Coeff-Com: -0.565D-02 0.326D+00 0.750D+00
 Coeff:      0.350D-04 0.534D-03 0.195D-02 0.317D-02-0.177D-01-0.586D-01
 Coeff:     -0.565D-02 0.326D+00 0.750D+00
 Gap=     0.234 Goal=   None    Shift=    0.000
 RMSDP=1.37D-07 MaxDP=6.45D-06 DE=-1.45D-09 OVMax= 1.24D-05

 Cycle  10  Pass 1  IDiag  1:
 RMSU=  5.70D-08    CP:  1.00D+00  1.01D+00  1.40D+00  1.36D+00  1.23D+00
                    CP:  1.59D+00  1.36D+00  1.26D+00  9.76D-01
 E= -633.326802999027     Delta-E=       -0.000000000150 Rises=F Damp=F
 DIIS: error= 1.59D-07 at cycle  10 NSaved=  10.
 NSaved=10 IEnMin=10 EnMin= -633.326802999027     IErMin=10 ErrMin= 1.59D-07
 ErrMax= 1.59D-07  0.00D+00 EMaxC= 1.00D-01 BMatC= 1.43D-11 BMatP= 7.41D-11
 IDIUse=1 WtCom= 1.00D+00 WtEn= 0.00D+00
 Coeff-Com: -0.752D-04 0.271D-03 0.282D-03 0.356D-02 0.873D-03-0.244D-01
 Coeff-Com: -0.254D-01 0.186D-01 0.301D+00 0.726D+00
 Coeff:     -0.752D-04 0.271D-03 0.282D-03 0.356D-02 0.873D-03-0.244D-01
 Coeff:     -0.254D-01 0.186D-01 0.301D+00 0.726D+00
 Gap=     0.234 Goal=   None    Shift=    0.000
 RMSDP=4.48D-08 MaxDP=1.55D-06 DE=-1.50D-10 OVMax= 3.15D-06

 Cycle  11  Pass 1  IDiag  1:
 RMSU=  1.71D-08    CP:  1.00D+00  1.01D+00  1.40D+00  1.36D+00  1.22D+00
                    CP:  1.60D+00  1.38D+00  1.29D+00  1.11D+00  1.08D+00
 E= -633.326802999033     Delta-E=       -0.000000000006 Rises=F Damp=F
 DIIS: error= 9.64D-08 at cycle  11 NSaved=  11.
 NSaved=11 IEnMin=11 EnMin= -633.326802999033     IErMin=11 ErrMin= 9.64D-08
 ErrMax= 9.64D-08  0.00D+00 EMaxC= 1.00D-01 BMatC= 2.82D-12 BMatP= 1.43D-11
 IDIUse=1 WtCom= 1.00D+00 WtEn= 0.00D+00
 Coeff-Com: -0.502D-04 0.862D-04-0.258D-03 0.142D-02 0.374D-02-0.167D-02
 Coeff-Com: -0.101D-01-0.531D-01 0.231D-01 0.341D+00 0.696D+00
 Coeff:     -0.502D-04 0.862D-04-0.258D-03 0.142D-02 0.374D-02-0.167D-02
 Coeff:     -0.101D-01-0.531D-01 0.231D-01 0.341D+00 0.696D+00
 Gap=     0.234 Goal=   None    Shift=    0.000
 RMSDP=2.36D-08 MaxDP=1.49D-06 DE=-5.80D-12 OVMax= 1.07D-06

 Cycle  12  Pass 1  IDiag  1:
 RMSU=  9.09D-09    CP:  1.00D+00  1.01D+00  1.40D+00  1.36D+00  1.22D+00
                    CP:  1.60D+00  1.39D+00  1.30D+00  1.13D+00  1.25D+00
                    CP:  9.52D-01
 E= -633.326802999039     Delta-E=       -0.000000000006 Rises=F Damp=F
 DIIS: error= 3.25D-08 at cycle  12 NSaved=  12.
 NSaved=12 IEnMin=12 EnMin= -633.326802999039     IErMin=12 ErrMin= 3.25D-08
 ErrMax= 3.25D-08  0.00D+00 EMaxC= 1.00D-01 BMatC= 3.93D-13 BMatP= 2.82D-12
 IDIUse=1 WtCom= 1.00D+00 WtEn= 0.00D+00
 Coeff-Com: -0.118D-04 0.203D-04-0.150D-03 0.128D-03 0.142D-02 0.242D-02
 Coeff-Com:  0.213D-04-0.246D-01-0.250D-01 0.366D-01 0.311D+00 0.698D+00
 Coeff:     -0.118D-04 0.203D-04-0.150D-03 0.128D-03 0.142D-02 0.242D-02
 Coeff:      0.213D-04-0.246D-01-0.250D-01 0.366D-01 0.311D+00 0.698D+00
 Gap=     0.234 Goal=   None    Shift=    0.000
 RMSDP=5.59D-09 MaxDP=2.80D-07 DE=-6.48D-12 OVMax= 3.98D-07

 Error on total polarization charges =  0.00915
 SCF Done:  E(RCAM-B3LYP) =  -633.326802999     A.U. after   12 cycles
            NFock= 12  Conv=0.56D-08     -V/T= 2.0041
 KE= 6.307409203661D+02 PE=-3.277668363296D+03 EE= 1.112846023588D+03
 Leave Link  502 at Fri Jan 23 22:51:08 2026, MaxMem=  2147483648 cpu:             757.6 elap:              48.1
 (Enter /data/home/wyx/g16/l601.exe)
 Copying SCF densities to generalized density rwf, IOpCl= 0 IROHF=0.

 **********************************************************************

            Population analysis using the SCF density.

 **********************************************************************

 Orbital symmetries:
       Occupied  (A) (A) (A) (A) (A) (A) (A) (A) (A) (A) (A) (A)
                 (A) (A) (A) (A) (A) (A) (A) (A) (A) (A) (A) (A)
                 (A) (A) (A) (A) (A) (A) (A) (A) (A) (A) (A) (A)
                 (A) (A) (A) (A) (A) (A) (A) (A) (A) (A) (A) (A)
                 (A) (A) (A) (A)
       Virtual   (A) (A) (A) (A) (A) (A) (A) (A) (A) (A) (A) (A)
                 (A) (A) (A) (A) (A) (A) (A) (A) (A) (A) (A) (A)
                 (A) (A) (A) (A) (A) (A) (A) (A) (A) (A) (A) (A)
                 (A) (A) (A) (A) (A) (A) (A) (A) (A) (A) (A) (A)
                 (A) (A) (A) (A) (A) (A) (A) (A) (A) (A) (A) (A)
                 (A) (A) (A) (A) (A) (A) (A) (A) (A) (A) (A) (A)
                 (A) (A) (A) (A) (A) (A) (A) (A) (A) (A) (A) (A)
                 (A) (A) (A) (A) (A) (A) (A) (A) (A) (A) (A) (A)
                 (A) (A) (A) (A) (A) (A) (A) (A) (A) (A) (A) (A)
                 (A) (A) (A) (A) (A) (A) (A) (A) (A) (A) (A) (A)
                 (A) (A) (A) (A) (A) (A) (A) (A) (A) (A) (A) (A)
                 (A) (A) (A) (A) (A) (A) (A) (A) (A) (A) (A) (A)
                 (A) (A) (A) (A) (A) (A) (A) (A) (A) (A) (A) (A)
                 (A) (A) (A) (A) (A) (A) (A) (A) (A) (A) (A) (A)
                 (A) (A) (A) (A) (A) (A) (A) (A) (A) (A) (A) (A)
                 (A) (A) (A) (A) (A) (A) (A) (A) (A) (A) (A) (A)
                 (A) (A) (A) (A) (A) (A) (A) (A) (A) (A) (A) (A)
                 (A) (A) (A) (A) (A) (A) (A) (A) (A) (A) (A) (A)
                 (A) (A) (A) (A) (A) (A) (A) (A) (A) (A) (A) (A)
                 (A) (A) (A) (A) (A) (A) (A) (A) (A) (A) (A) (A)
                 (A) (A) (A) (A) (A) (A) (A) (A) (A) (A) (A) (A)
                 (A) (A) (A) (A) (A) (A) (A) (A) (A) (A) (A) (A)
                 (A) (A) (A) (A) (A) (A) (A) (A) (A) (A) (A) (A)
                 (A) (A) (A) (A) (A) (A) (A) (A) (A) (A) (A) (A)
                 (A) (A) (A) (A) (A) (A) (A) (A) (A) (A) (A) (A)
                 (A) (A) (A) (A)
 The electronic state is 1-A.
 Alpha  occ. eigenvalues --  -19.18105 -19.16925 -14.44455 -10.33668 -10.32678
 Alpha  occ. eigenvalues --  -10.32472 -10.31630 -10.26313 -10.25370 -10.24831
 Alpha  occ. eigenvalues --  -10.24824 -10.24582 -10.24546 -10.23296  -1.12148
 Alpha  occ. eigenvalues --   -1.11101  -1.07967  -0.91513  -0.90453  -0.83969
 Alpha  occ. eigenvalues --   -0.82667  -0.81791  -0.78557  -0.74161  -0.71564
 Alpha  occ. eigenvalues --   -0.68714  -0.61675  -0.58374  -0.56994  -0.55353
 Alpha  occ. eigenvalues --   -0.54759  -0.54003  -0.52651  -0.51979  -0.50988
 Alpha  occ. eigenvalues --   -0.50052  -0.49500  -0.49214  -0.48755  -0.48222
 Alpha  occ. eigenvalues --   -0.47043  -0.45327  -0.44989  -0.43758  -0.43296
 Alpha  occ. eigenvalues --   -0.42487  -0.42211  -0.41709  -0.32947  -0.32386
 Alpha  occ. eigenvalues --   -0.30908  -0.26034
 Alpha virt. eigenvalues --   -0.02607   0.02481   0.06037   0.07961   0.08320
 Alpha virt. eigenvalues --    0.09788   0.10784   0.11826   0.12492   0.13362
 Alpha virt. eigenvalues --    0.14005   0.14688   0.15528   0.16148   0.16926
 Alpha virt. eigenvalues --    0.17591   0.17667   0.18024   0.18061   0.19243
 Alpha virt. eigenvalues --    0.19826   0.22045   0.22586   0.23245   0.23558
 Alpha virt. eigenvalues --    0.23752   0.24769   0.25437   0.26123   0.26480
 Alpha virt. eigenvalues --    0.26836   0.27457   0.28688   0.28887   0.30104
 Alpha virt. eigenvalues --    0.31506   0.31812   0.32520   0.33432   0.34235
 Alpha virt. eigenvalues --    0.35143   0.35891   0.36698   0.38004   0.38635
 Alpha virt. eigenvalues --    0.39902   0.40799   0.41469   0.41935   0.42484
 Alpha virt. eigenvalues --    0.43888   0.44375   0.45349   0.45898   0.46393
 Alpha virt. eigenvalues --    0.47167   0.47544   0.48051   0.48196   0.48905
 Alpha virt. eigenvalues --    0.49322   0.50425   0.50969   0.51340   0.51677
 Alpha virt. eigenvalues --    0.52837   0.53100   0.53368   0.54121   0.54232
 Alpha virt. eigenvalues --    0.54397   0.55679   0.56124   0.56488   0.58137
 Alpha virt. eigenvalues --    0.58597   0.58881   0.60661   0.61039   0.62536
 Alpha virt. eigenvalues --    0.63328   0.65650   0.66078   0.66568   0.67815
 Alpha virt. eigenvalues --    0.68565   0.70120   0.70988   0.72034   0.72756
 Alpha virt. eigenvalues --    0.73101   0.73787   0.74757   0.75760   0.77649
 Alpha virt. eigenvalues --    0.78237   0.79710   0.82270   0.84721   0.85119
 Alpha virt. eigenvalues --    0.89647   0.93802   0.99911   1.01841   1.23970
 Alpha virt. eigenvalues --    1.25271   1.26855   1.27878   1.29287   1.31264
 Alpha virt. eigenvalues --    1.32509   1.32963   1.33854   1.34857   1.35836
 Alpha virt. eigenvalues --    1.36529   1.37531   1.38061   1.38944   1.39748
 Alpha virt. eigenvalues --    1.39930   1.40217   1.40922   1.41494   1.41612
 Alpha virt. eigenvalues --    1.43208   1.43957   1.44453   1.45050   1.47086
 Alpha virt. eigenvalues --    1.47983   1.49031   1.49552   1.50236   1.50945
 Alpha virt. eigenvalues --    1.51837   1.52266   1.53334   1.54524   1.57750
 Alpha virt. eigenvalues --    1.58333   1.60539   1.60616   1.61260   1.62152
 Alpha virt. eigenvalues --    1.62574   1.63369   1.64075   1.64978   1.65794
 Alpha virt. eigenvalues --    1.66775   1.67151   1.67444   1.68240   1.68486
 Alpha virt. eigenvalues --    1.68775   1.69712   1.70289   1.71604   1.72094
 Alpha virt. eigenvalues --    1.73449   1.75040   1.76031   1.76748   1.78717
 Alpha virt. eigenvalues --    1.80208   1.82831   1.84021   1.85824   1.86498
 Alpha virt. eigenvalues --    1.86939   1.87719   1.88591   1.88787   1.90566
 Alpha virt. eigenvalues --    1.91156   1.94433   1.94929   1.98398   1.99737
 Alpha virt. eigenvalues --    2.00938   2.03676   2.04629   2.06448   2.09380
 Alpha virt. eigenvalues --    2.11039   2.12705   2.14562   2.17003   2.19398
 Alpha virt. eigenvalues --    2.20195   2.21139   2.21668   2.22708   2.26172
 Alpha virt. eigenvalues --    2.27020   2.27331   2.29036   2.30776   2.31580
 Alpha virt. eigenvalues --    2.33435   2.34383   2.36404   2.37105   2.38164
 Alpha virt. eigenvalues --    2.39303   2.40242   2.41503   2.43383   2.44706
 Alpha virt. eigenvalues --    2.45925   2.47690   2.50122   2.50618   2.51614
 Alpha virt. eigenvalues --    2.52193   2.53727   2.55015   2.56645   2.58320
 Alpha virt. eigenvalues --    2.58911   2.60409   2.61075   2.62073   2.62760
 Alpha virt. eigenvalues --    2.64445   2.65763   2.66802   2.67279   2.68861
 Alpha virt. eigenvalues --    2.71176   2.71970   2.72725   2.73907   2.75113
 Alpha virt. eigenvalues --    2.76132   2.76430   2.77211   2.77835   2.79498
 Alpha virt. eigenvalues --    2.80833   2.81580   2.83448   2.83485   2.84490
 Alpha virt. eigenvalues --    2.85535   2.86151   2.87930   2.90126   2.91924
 Alpha virt. eigenvalues --    2.97579   3.00160   3.00618   3.04463   3.10379
 Alpha virt. eigenvalues --    3.12083   3.15979   3.16594   3.17222   3.20695
 Alpha virt. eigenvalues --    3.21210   3.22494   3.24598   3.26115   3.27118
 Alpha virt. eigenvalues --    3.27856   3.29847   3.33428   3.34826   3.36435
 Alpha virt. eigenvalues --    3.37158   3.38555   3.40018   3.40321   3.41740
 Alpha virt. eigenvalues --    3.42453   3.44606   3.45366   3.46936   3.48103
 Alpha virt. eigenvalues --    3.49123   3.49295   3.55032   3.58248   3.59670
 Alpha virt. eigenvalues --    3.60653   3.90085   3.99637   4.33986   4.36752
 Alpha virt. eigenvalues --   21.64293  21.79720  22.08323  22.10759  22.11930
 Alpha virt. eigenvalues --   22.14842  22.15191  22.18566  22.20538  22.24579
 Alpha virt. eigenvalues --   22.29790  31.92545  43.63080  43.66014
          Condensed to atoms (all electrons):
               1          2          3          4          5          6
     1  O    7.932895   0.000000  -0.000227   0.000019   0.016783   0.015560
     2  O    0.000000   7.949731   0.000555   0.000035  -0.192715   0.000933
     3  N   -0.000227   0.000555   6.409327   0.374067  -0.120161   0.326802
     4  H    0.000019   0.000035   0.374067   0.412509   0.016480  -0.048180
     5  C    0.016783  -0.192715  -0.120161   0.016480   6.994010  -0.065760
     6  C    0.015560   0.000933   0.326802  -0.048180  -0.065760   5.643240
     7  C   -0.000387  -0.037480   0.375072  -0.039789   0.389674  -0.099062
     8  C   -0.000276   0.705636   0.005000  -0.000644  -0.219236   0.025600
     9  C   -0.022124   0.020055   0.014625  -0.000131  -0.543890  -0.106179
    10  H    0.014291  -0.000039  -0.001288   0.000020  -0.114057   0.026321
    11  H    0.004266   0.000104   0.003807   0.000014  -0.029885  -0.016904
    12  C   -0.221364  -0.002396  -0.093373   0.014769   0.159755  -0.176841
    13  C    0.713138  -0.000021   0.000754   0.000436   0.077603   0.173339
    14  C   -0.000006  -0.001868  -0.035356  -0.008884  -0.079376   0.011060
    15  H   -0.000000   0.004310   0.003084   0.001524   0.019615   0.006668
    16  H   -0.000000   0.001010   0.001236   0.000773  -0.010623  -0.000892
    17  H   -0.000000   0.001202  -0.002693   0.000932  -0.005723  -0.001942
    18  C   -0.000006  -0.104868  -0.000536   0.000021  -0.270295   0.000356
    19  H   -0.000003   0.008676   0.000001  -0.000001   0.021294   0.000033
    20  H    0.000089   0.003584   0.000119   0.000001   0.042323  -0.001124
    21  H    0.000013   0.001043   0.000011  -0.000001   0.004954   0.000252
    22  C   -0.106473   0.000000  -0.000103   0.000121   0.004226  -0.010526
    23  H    0.001244  -0.000000  -0.000029  -0.000016  -0.000064   0.010901
    24  H    0.004776  -0.000000  -0.000017  -0.000053  -0.000601  -0.033546
    25  H    0.007449   0.000000   0.000030  -0.000002  -0.000147  -0.001175
    26  C    0.000909   0.000004  -0.029808  -0.005809   0.000252   0.173875
    27  H   -0.000047  -0.000000  -0.002556   0.000431   0.000427  -0.035132
    28  H   -0.000256  -0.000000   0.002819   0.000867  -0.000017  -0.044461
    29  H    0.000026  -0.000000   0.000427   0.001151  -0.000513  -0.050630
               7          8          9         10         11         12
     1  O   -0.000387  -0.000276  -0.022124   0.014291   0.004266  -0.221364
     2  O   -0.037480   0.705636   0.020055  -0.000039   0.000104  -0.002396
     3  N    0.375072   0.005000   0.014625  -0.001288   0.003807  -0.093373
     4  H   -0.039789  -0.000644  -0.000131   0.000020   0.000014   0.014769
     5  C    0.389674  -0.219236  -0.543890  -0.114057  -0.029885   0.159755
     6  C   -0.099062   0.025600  -0.106179   0.026321  -0.016904  -0.176841
     7  C    5.438688  -0.182394  -0.184478   0.018218  -0.004730   0.006629
     8  C   -0.182394   5.304951   0.111736  -0.008821  -0.004535  -0.035342
     9  C   -0.184478   0.111736   6.328872   0.535528   0.391356  -0.026845
    10  H    0.018218  -0.008821   0.535528   0.505348  -0.036391  -0.107062
    11  H   -0.004730  -0.004535   0.391356  -0.036391   0.561330  -0.019970
    12  C    0.006629  -0.035342  -0.026845  -0.107062  -0.019970   7.323606
    13  C    0.011559  -0.005744  -0.260544  -0.001947  -0.000901  -0.404652
    14  C    0.260623  -0.028176   0.011812   0.000532  -0.001282  -0.004954
    15  H   -0.081210   0.005443   0.000115  -0.000004   0.000064  -0.001298
    16  H   -0.024190  -0.007219  -0.000708  -0.000051   0.000191  -0.000003
    17  H   -0.020375  -0.002772   0.000730   0.000053  -0.000067   0.000820
    18  C    0.002664   0.308566   0.003201   0.006879  -0.009158  -0.004014
    19  H    0.000165  -0.048791  -0.000491   0.000538  -0.000011  -0.000194
    20  H    0.001255  -0.064691  -0.009306  -0.005179   0.001974   0.007464
    21  H    0.000695  -0.025860  -0.009550  -0.001934   0.000961  -0.003660
    22  C    0.000018  -0.000055   0.004254   0.000811   0.001764  -0.259569
    23  H    0.000023   0.000003  -0.002099  -0.000116   0.000156  -0.011434
    24  H    0.000000  -0.000007   0.003424  -0.000044  -0.000139   0.067302
    25  H    0.000007   0.000003   0.000206  -0.000124  -0.000044   0.022132
    26  C    0.002039   0.000513   0.020714   0.000028  -0.000703  -0.077013
    27  H   -0.000789  -0.000009  -0.000217   0.000040  -0.000019  -0.019725
    28  H   -0.000748   0.000002  -0.000674   0.000007  -0.000116  -0.008474
    29  H    0.003605  -0.000007  -0.000548  -0.000011   0.000108   0.024252
              13         14         15         16         17         18
     1  O    0.713138  -0.000006  -0.000000  -0.000000  -0.000000  -0.000006
     2  O   -0.000021  -0.001868   0.004310   0.001010   0.001202  -0.104868
     3  N    0.000754  -0.035356   0.003084   0.001236  -0.002693  -0.000536
     4  H    0.000436  -0.008884   0.001524   0.000773   0.000932   0.000021
     5  C    0.077603  -0.079376   0.019615  -0.010623  -0.005723  -0.270295
     6  C    0.173339   0.011060   0.006668  -0.000892  -0.001942   0.000356
     7  C    0.011559   0.260623  -0.081210  -0.024190  -0.020375   0.002664
     8  C   -0.005744  -0.028176   0.005443  -0.007219  -0.002772   0.308566
     9  C   -0.260544   0.011812   0.000115  -0.000708   0.000730   0.003201
    10  H   -0.001947   0.000532  -0.000004  -0.000051   0.000053   0.006879
    11  H   -0.000901  -0.001282   0.000064   0.000191  -0.000067  -0.009158
    12  C   -0.404652  -0.004954  -0.001298  -0.000003   0.000820  -0.004014
    13  C    5.457884  -0.000055  -0.000022  -0.000001  -0.000016   0.000769
    14  C   -0.000055   5.043074   0.388454   0.422979   0.408341   0.002213
    15  H   -0.000022   0.388454   0.587577  -0.029115  -0.027645   0.000294
    16  H   -0.000001   0.422979  -0.029115   0.502672  -0.023949  -0.000296
    17  H   -0.000016   0.408341  -0.027645  -0.023949   0.506117  -0.000111
    18  C    0.000769   0.002213   0.000294  -0.000296  -0.000111   5.352680
    19  H   -0.000015   0.000004  -0.000005   0.000035  -0.000020   0.394050
    20  H    0.000532   0.000021  -0.000017  -0.000034   0.000007   0.380014
    21  H   -0.000086  -0.000284  -0.000006   0.000025  -0.000006   0.396988
    22  C    0.283775  -0.000021   0.000002  -0.000000   0.000000   0.000032
    23  H   -0.022068  -0.000001   0.000000  -0.000000   0.000000  -0.000002
    24  H   -0.093847  -0.000000   0.000000   0.000000   0.000000   0.000003
    25  H   -0.039484   0.000000   0.000000   0.000000  -0.000000  -0.000001
    26  C   -0.053312   0.001329   0.000100   0.000052  -0.000162   0.000023
    27  H    0.006406  -0.000117   0.000001   0.000004  -0.000010  -0.000001
    28  H   -0.004391   0.000091  -0.000012  -0.000001   0.000001  -0.000000
    29  H   -0.000795  -0.000263   0.000118  -0.000004   0.000002   0.000000
              19         20         21         22         23         24
     1  O   -0.000003   0.000089   0.000013  -0.106473   0.001244   0.004776
     2  O    0.008676   0.003584   0.001043   0.000000  -0.000000  -0.000000
     3  N    0.000001   0.000119   0.000011  -0.000103  -0.000029  -0.000017
     4  H   -0.000001   0.000001  -0.000001   0.000121  -0.000016  -0.000053
     5  C    0.021294   0.042323   0.004954   0.004226  -0.000064  -0.000601
     6  C    0.000033  -0.001124   0.000252  -0.010526   0.010901  -0.033546
     7  C    0.000165   0.001255   0.000695   0.000018   0.000023   0.000000
     8  C   -0.048791  -0.064691  -0.025860  -0.000055   0.000003  -0.000007
     9  C   -0.000491  -0.009306  -0.009550   0.004254  -0.002099   0.003424
    10  H    0.000538  -0.005179  -0.001934   0.000811  -0.000116  -0.000044
    11  H   -0.000011   0.001974   0.000961   0.001764   0.000156  -0.000139
    12  C   -0.000194   0.007464  -0.003660  -0.259569  -0.011434   0.067302
    13  C   -0.000015   0.000532  -0.000086   0.283775  -0.022068  -0.093847
    14  C    0.000004   0.000021  -0.000284  -0.000021  -0.000001  -0.000000
    15  H   -0.000005  -0.000017  -0.000006   0.000002   0.000000   0.000000
    16  H    0.000035  -0.000034   0.000025  -0.000000  -0.000000   0.000000
    17  H   -0.000020   0.000007  -0.000006   0.000000   0.000000   0.000000
    18  C    0.394050   0.380014   0.396988   0.000032  -0.000002   0.000003
    19  H    0.494715  -0.022524  -0.008756  -0.000000   0.000000   0.000000
    20  H   -0.022524   0.543136  -0.026955   0.000018  -0.000000  -0.000000
    21  H   -0.008756  -0.026955   0.503454  -0.000014   0.000000  -0.000000
    22  C   -0.000000   0.000018  -0.000014   5.424527   0.400455   0.398225
    23  H    0.000000  -0.000000   0.000000   0.400455   0.494924  -0.027566
    24  H    0.000000  -0.000000  -0.000000   0.398225  -0.027566   0.543627
    25  H   -0.000000  -0.000000   0.000000   0.385076  -0.007522  -0.022013
    26  C    0.000000  -0.000016   0.000005  -0.028810  -0.014290   0.016330
    27  H    0.000000  -0.000000  -0.000000  -0.010811   0.001087  -0.001512
    28  H   -0.000000  -0.000000   0.000000   0.007543  -0.000340  -0.009794
    29  H    0.000000   0.000000  -0.000000   0.002007   0.000222   0.000708
              25         26         27         28         29
     1  O    0.007449   0.000909  -0.000047  -0.000256   0.000026
     2  O    0.000000   0.000004  -0.000000  -0.000000  -0.000000
     3  N    0.000030  -0.029808  -0.002556   0.002819   0.000427
     4  H   -0.000002  -0.005809   0.000431   0.000867   0.001151
     5  C   -0.000147   0.000252   0.000427  -0.000017  -0.000513
     6  C   -0.001175   0.173875  -0.035132  -0.044461  -0.050630
     7  C    0.000007   0.002039  -0.000789  -0.000748   0.003605
     8  C    0.000003   0.000513  -0.000009   0.000002  -0.000007
     9  C    0.000206   0.020714  -0.000217  -0.000674  -0.000548
    10  H   -0.000124   0.000028   0.000040   0.000007  -0.000011
    11  H   -0.000044  -0.000703  -0.000019  -0.000116   0.000108
    12  C    0.022132  -0.077013  -0.019725  -0.008474   0.024252
    13  C   -0.039484  -0.053312   0.006406  -0.004391  -0.000795
    14  C    0.000000   0.001329  -0.000117   0.000091  -0.000263
    15  H    0.000000   0.000100   0.000001  -0.000012   0.000118
    16  H    0.000000   0.000052   0.000004  -0.000001  -0.000004
    17  H   -0.000000  -0.000162  -0.000010   0.000001   0.000002
    18  C   -0.000001   0.000023  -0.000001  -0.000000   0.000000
    19  H   -0.000000   0.000000   0.000000  -0.000000   0.000000
    20  H   -0.000000  -0.000016  -0.000000  -0.000000   0.000000
    21  H    0.000000   0.000005  -0.000000   0.000000  -0.000000
    22  C    0.385076  -0.028810  -0.010811   0.007543   0.002007
    23  H   -0.007522  -0.014290   0.001087  -0.000340   0.000222
    24  H   -0.022013   0.016330  -0.001512  -0.009794   0.000708
    25  H    0.490744   0.001794   0.000103   0.000816  -0.000041
    26  C    0.001794   5.257081   0.429585   0.427698   0.390401
    27  H    0.000103   0.429585   0.480590  -0.025252  -0.018905
    28  H    0.000816   0.427698  -0.025252   0.509453  -0.026798
    29  H   -0.000041   0.390401  -0.018905  -0.026798   0.521865
 Mulliken charges:
               1
     1  O   -0.360286
     2  O   -0.357490
     3  N   -0.231591
     4  H    0.279341
     5  C   -0.094334
     6  C    0.277412
     7  C    0.164699
     8  C    0.167126
     9  C   -0.278845
    10  H    0.168453
    11  H    0.158758
    12  C   -0.148550
    13  C    0.161709
    14  C   -0.389891
    15  H    0.121965
    16  H    0.168109
    17  H    0.167287
    18  C   -0.459465
    19  H    0.161300
    20  H    0.149312
    21  H    0.168709
    22  C   -0.496472
    23  H    0.176532
    24  H    0.154741
    25  H    0.162193
    26  C   -0.512810
    27  H    0.196426
    28  H    0.172039
    29  H    0.153623
 Sum of Mulliken charges =  -0.00000
 Mulliken charges with hydrogens summed into heavy atoms:
               1
     1  O   -0.360286
     2  O   -0.357490
     3  N    0.047750
     5  C   -0.094334
     6  C    0.277412
     7  C    0.164699
     8  C    0.167126
     9  C    0.048367
    12  C   -0.148550
    13  C    0.161709
    14  C    0.067469
    18  C    0.019856
    22  C   -0.003006
    26  C    0.009278
 Electronic spatial extent (au):  <R**2>=           3186.5411
 Charge=             -0.0000 electrons
 Dipole moment (field-independent basis, Debye):
    X=              3.4915    Y=              6.9526    Z=             -0.1291  Tot=              7.7812
 Quadrupole moment (field-independent basis, Debye-Ang):
   XX=            -96.0981   YY=            -78.7173   ZZ=            -84.9980
   XY=             12.4289   XZ=              4.9810   YZ=             -1.6773
 Traceless Quadrupole moment (field-independent basis, Debye-Ang):
   XX=             -9.4936   YY=              7.8872   ZZ=              1.6065
   XY=             12.4289   XZ=              4.9810   YZ=             -1.6773
 Octapole moment (field-independent basis, Debye-Ang**2):
  XXX=             99.2670  YYY=             60.5360  ZZZ=              2.0185  XYY=            -34.6715
  XXY=             28.3633  XXZ=             -8.2008  XZZ=              1.5337  YZZ=             -1.5651
  YYZ=              3.7451  XYZ=             -5.1474
 Hexadecapole moment (field-independent basis, Debye-Ang**3):
 XXXX=          -2998.1887 YYYY=          -1280.6940 ZZZZ=           -154.3058 XXXY=             37.7484
 XXXZ=             56.5136 YYYX=             87.1204 YYYZ=            -20.9284 ZZZX=             -3.3142
 ZZZY=              4.9818 XXYY=           -686.2533 XXZZ=           -483.2209 YYZZ=           -243.4947
 XXYZ=             -7.7303 YYXZ=              7.0571 ZZXY=             -1.2389
 N-N= 9.007546163436D+02 E-N=-3.277668365492D+03  KE= 6.307409203661D+02
 No NMR shielding tensors so no spin-rotation constants.
 Leave Link  601 at Fri Jan 23 22:51:08 2026, MaxMem=  2147483648 cpu:               1.8 elap:               0.1
 (Enter /data/home/wyx/g16/l9999.exe)
 1\1\GINC-CN012\SP\RCAM-B3LYP\TZVP\C11H15N1O2\WYX\23-Jan-2026\0\\#p CAM
 -B3LYP TZVP em=gd3bj scrf=(Solvent=TetraHydroFuran,NonEquilibrium=Read
 ) Geom=Check Guess=Read\\Title Card Required\\0,1\O,0,2.836357,-1.5663
 81,0.130446\O,0,-3.421792,-1.626118,0.035495\N,0,-0.64043,1.511966,-0.
 332319\H,0,-0.949967,2.46982,-0.385617\C,0,-1.239668,-0.758331,-0.2192
 87\C,0,0.697053,1.305756,-0.090736\C,0,-1.616079,0.552338,-0.282568\C,
 0,-2.221687,-1.831505,-0.115229\C,0,0.215078,-1.106264,-0.323646\H,0,0
 .456719,-1.94429,0.329808\H,0,0.444809,-1.485486,-1.330139\C,0,1.15068
 1,0.02331,-0.003572\C,0,2.513802,-0.395236,0.315459\C,0,-3.00558,1.091
 293,-0.307278\H,0,-3.008114,2.152041,-0.552675\H,0,-3.620786,0.561461,
 -1.026322\H,0,-3.487641,0.96226,0.658872\C,0,-1.727244,-3.251228,-0.18
 9604\H,0,-2.570383,-3.922728,-0.309579\H,0,-1.027384,-3.40283,-1.00767
 3\H,0,-1.203902,-3.520473,0.727154\C,0,3.538268,0.540583,0.909717\H,0,
 4.051458,1.093172,0.120607\H,0,3.109912,1.258259,1.604516\H,0,4.278866
 ,-0.066402,1.425225\C,0,1.46782,2.580997,0.032041\H,0,1.556226,2.89358
 2,1.072522\H,0,2.465013,2.499853,-0.381636\H,0,0.958596,3.38058,-0.503
 982\\Version=ES64L-G16RevA.03\State=1-A\HF=-633.326803\RMSD=5.594e-09\
 Dipole=0.3820419,3.0365691,-0.0719006\Quadrupole=-12.158071,10.259453,
 1.898618,3.1157813,2.3171115,0.2381199\PG=C01 [X(C11H15N1O2)]\\@


 "TIGER, TIGER BURNING BRIGHT
 IN THE FOREST OF THE NIGHT.
 WHAT IMMORTAL HAND OR EYE
 CAN FRAME THY FEARFUL SYMMETRYE?"
                     - WILLIAM BLAKE
 Job cpu time:       0 days  0 hours 12 minutes 48.3 seconds.
 Elapsed time:       0 days  0 hours  0 minutes 48.9 seconds.
 File lengths (MBytes):  RWF=    341 Int=      0 D2E=      0 Chk=     67 Scr=      1
 Normal termination of Gaussian 16 at Fri Jan 23 22:51:09 2026.
