 Entering Gaussian System, Link 0=g16
 Input=DDL-S2-cLR-gs-6.gjf
 Output=DDL-S2-cLR-gs-6.log
 Initial command:
 /data/home/wyx/g16/l1.exe "/scr/tmp/wyx/13106/Gau-1985646.inp" -scrdir="/scr/tmp/wyx/13106/"
 Entering Link 1 = /data/home/wyx/g16/l1.exe PID=   1985647.
  
 Copyright (c) 1988,1990,1992,1993,1995,1998,2003,2009,2016,
            Gaussian, Inc.  All Rights Reserved.
  
 This is part of the Gaussian(R) 16 program.  It is based on
 the Gaussian(R) 09 system (copyright 2009, Gaussian, Inc.),
 the Gaussian(R) 03 system (copyright 2003, Gaussian, Inc.),
 the Gaussian(R) 98 system (copyright 1998, Gaussian, Inc.),
 the Gaussian(R) 94 system (copyright 1995, Gaussian, Inc.),
 the Gaussian 92(TM) system (copyright 1992, Gaussian, Inc.),
 the Gaussian 90(TM) system (copyright 1990, Gaussian, Inc.),
 the Gaussian 88(TM) system (copyright 1988, Gaussian, Inc.),
 the Gaussian 86(TM) system (copyright 1986, Carnegie Mellon
 University), and the Gaussian 82(TM) system (copyright 1983,
 Carnegie Mellon University). Gaussian is a federally registered
 trademark of Gaussian, Inc.
  
 This software contains proprietary and confidential information,
 including trade secrets, belonging to Gaussian, Inc.
  
 This software is provided under written license and may be
 used, copied, transmitted, or stored only in accord with that
 written license.
  
 The following legend is applicable only to US Government
 contracts under FAR:
  
                    RESTRICTED RIGHTS LEGEND
  
 Use, reproduction and disclosure by the US Government is
 subject to restrictions as set forth in subparagraphs (a)
 and (c) of the Commercial Computer Software - Restricted
 Rights clause in FAR 52.227-19.
  
 Gaussian, Inc.
 340 Quinnipiac St., Bldg. 40, Wallingford CT 06492
  
  
 ---------------------------------------------------------------
 Warning -- This program may not be used in any manner that
 competes with the business of Gaussian, Inc. or will provide
 assistance to any competitor of Gaussian, Inc.  The licensee
 of this program is prohibited from giving any competitor of
 Gaussian, Inc. access to this program.  By using this program,
 the user acknowledges that Gaussian, Inc. is engaged in the
 business of creating and licensing software in the field of
 computational chemistry and represents and warrants to the
 licensee that it is not a competitor of Gaussian, Inc. and that
 it will not use this program in any manner prohibited above.
 ---------------------------------------------------------------
  

 Cite this work as:
 Gaussian 16, Revision A.03,
 M. J. Frisch, G. W. Trucks, H. B. Schlegel, G. E. Scuseria, 
 M. A. Robb, J. R. Cheeseman, G. Scalmani, V. Barone, 
 G. A. Petersson, H. Nakatsuji, X. Li, M. Caricato, A. V. Marenich, 
 J. Bloino, B. G. Janesko, R. Gomperts, B. Mennucci, H. P. Hratchian, 
 J. V. Ortiz, A. F. Izmaylov, J. L. Sonnenberg, D. Williams-Young, 
 F. Ding, F. Lipparini, F. Egidi, J. Goings, B. Peng, A. Petrone, 
 T. Henderson, D. Ranasinghe, V. G. Zakrzewski, J. Gao, N. Rega, 
 G. Zheng, W. Liang, M. Hada, M. Ehara, K. Toyota, R. Fukuda, 
 J. Hasegawa, M. Ishida, T. Nakajima, Y. Honda, O. Kitao, H. Nakai, 
 T. Vreven, K. Throssell, J. A. Montgomery, Jr., J. E. Peralta, 
 F. Ogliaro, M. J. Bearpark, J. J. Heyd, E. N. Brothers, K. N. Kudin, 
 V. N. Staroverov, T. A. Keith, R. Kobayashi, J. Normand, 
 K. Raghavachari, A. P. Rendell, J. C. Burant, S. S. Iyengar, 
 J. Tomasi, M. Cossi, J. M. Millam, M. Klene, C. Adamo, R. Cammi, 
 J. W. Ochterski, R. L. Martin, K. Morokuma, O. Farkas, 
 J. B. Foresman, and D. J. Fox, Gaussian, Inc., Wallingford CT, 2016.
 
 ******************************************
 Gaussian 16:  ES64L-G16RevA.03 25-Dec-2016
                23-Jan-2026 
 ******************************************
 %nprocshared=16
 Will use up to   16 processors via shared memory.
 %mem=16GB
 %oldchk=DDL-S2-cLR-6.chk
 %chk=DDL-S2-cLR-gs-6.chk
 Copying data from "DDL-S2-cLR-6.chk" to current chk file "DDL-S2-cLR-gs-6.chk"
 IOpt=  2 FromEx=T IUOpen= 4 IOptOp= 5 NList=   0 IFRang= 0 IUIn= 4 IUOut= 2.
 ----------------------------------------------------------------------
 #p CAM-B3LYP TZVP em=gd3bj scrf=(Solvent=TetraHydroFuran,NonEquilibriu
 m=Read) Geom=Check Guess=Read
 ----------------------------------------------------------------------
 1/29=2,38=1,172=1/1;
 2/12=2,40=1/2;
 3/5=19,7=101,11=2,14=-4,25=1,30=1,70=6002201,72=20,74=-40,116=-2,124=41/1,2,3;
 4/5=1/1;
 5/5=2,38=6,53=20/2;
 6/7=2,8=2,9=2,10=2,28=1/1;
 99/5=1,9=1/99;
 Leave Link    1 at Fri Jan 23 22:39:48 2026, MaxMem=  2147483648 cpu:               5.6 elap:               0.5
 (Enter /data/home/wyx/g16/l101.exe)
 -------------------
 Title Card Required
 -------------------
 Structure from the checkpoint file:  "DDL-S2-cLR-gs-6.chk"
 Charge =  0 Multiplicity = 1
 Z-Matrix found in chk file.
 O,0,2.838809,-1.571128,0.068736
 O,0,-3.427353,-1.641177,-0.082262
 N,0,-0.656723,1.516031,-0.234645
 H,0,-0.967862,2.475653,-0.285417
 C,0,-1.245636,-0.761057,-0.207138
 C,0,0.684977,1.325013,-0.046062
 C,0,-1.630886,0.569721,-0.253025
 C,0,-2.215241,-1.841272,-0.160243
 C,0,0.201203,-1.09032,-0.234406
 H,0,0.423308,-1.907329,0.457948
 H,0,0.464529,-1.536889,-1.208585
 C,0,1.148518,0.025151,0.026423
 C,0,2.516735,-0.399667,0.285161
 C,0,-3.018943,1.100641,-0.335118
 H,0,-3.018592,2.178649,-0.487134
 H,0,-3.570426,0.636659,-1.14645
 H,0,-3.576381,0.883996,0.571943
 C,0,-1.715791,-3.260995,-0.186936
 H,0,-2.536482,-3.926766,-0.429515
 H,0,-0.91224,-3.417795,-0.900131
 H,0,-1.332299,-3.547828,0.791364
 C,0,3.557068,0.531983,0.857866
 H,0,4.065357,1.075725,0.059011
 H,0,3.145927,1.257569,1.55484
 H,0,4.299723,-0.077657,1.367788
 C,0,1.468398,2.593322,0.027373
 H,0,1.662978,2.895519,1.056446
 H,0,2.423192,2.50674,-0.478761
 H,0,0.924131,3.407506,-0.449071
 Recover connectivity data from disk.
 ITRead=  0  0  0  0  0  0  0  0  0  0  0  0  0  0  0  0  0  0  0  0
 ITRead=  0  0  0  0  0  0  0  0  0
 MicOpt= -1 -1 -1 -1 -1 -1 -1 -1 -1 -1 -1 -1 -1 -1 -1 -1 -1 -1 -1 -1
 MicOpt= -1 -1 -1 -1 -1 -1 -1 -1 -1
 NAtoms=     29 NQM=       29 NQMF=       0 NMMI=      0 NMMIF=      0
                NMic=       0 NMicF=      0.
                    Isotopes and Nuclear Properties:
 (Nuclear quadrupole moments (NQMom) in fm**2, nuclear magnetic moments (NMagM)
  in nuclear magnetons)

  Atom         1           2           3           4           5           6           7           8           9          10
 IAtWgt=          16          16          14           1          12          12          12          12          12           1
 AtmWgt=  15.9949146  15.9949146  14.0030740   1.0078250  12.0000000  12.0000000  12.0000000  12.0000000  12.0000000   1.0078250
 NucSpn=           0           0           2           1           0           0           0           0           0           1
 AtZEff=   5.6000000   5.6000000   4.5500000   1.0000000   3.6000000   3.6000000   3.6000000   3.6000000   3.6000000   1.0000000
 NQMom=    0.0000000   0.0000000   2.0440000   0.0000000   0.0000000   0.0000000   0.0000000   0.0000000   0.0000000   0.0000000
 NMagM=    0.0000000   0.0000000   0.4037610   2.7928460   0.0000000   0.0000000   0.0000000   0.0000000   0.0000000   2.7928460
 AtZNuc=   8.0000000   8.0000000   7.0000000   1.0000000   6.0000000   6.0000000   6.0000000   6.0000000   6.0000000   1.0000000

  Atom        11          12          13          14          15          16          17          18          19          20
 IAtWgt=           1          12          12          12           1           1           1          12           1           1
 AtmWgt=   1.0078250  12.0000000  12.0000000  12.0000000   1.0078250   1.0078250   1.0078250  12.0000000   1.0078250   1.0078250
 NucSpn=           1           0           0           0           1           1           1           0           1           1
 AtZEff=   1.0000000   3.6000000   3.6000000   3.6000000   1.0000000   1.0000000   1.0000000   3.6000000   1.0000000   1.0000000
 NQMom=    0.0000000   0.0000000   0.0000000   0.0000000   0.0000000   0.0000000   0.0000000   0.0000000   0.0000000   0.0000000
 NMagM=    2.7928460   0.0000000   0.0000000   0.0000000   2.7928460   2.7928460   2.7928460   0.0000000   2.7928460   2.7928460
 AtZNuc=   1.0000000   6.0000000   6.0000000   6.0000000   1.0000000   1.0000000   1.0000000   6.0000000   1.0000000   1.0000000

  Atom        21          22          23          24          25          26          27          28          29
 IAtWgt=           1          12           1           1           1          12           1           1           1
 AtmWgt=   1.0078250  12.0000000   1.0078250   1.0078250   1.0078250  12.0000000   1.0078250   1.0078250   1.0078250
 NucSpn=           1           0           1           1           1           0           1           1           1
 AtZEff=   1.0000000   3.6000000   1.0000000   1.0000000   1.0000000   3.6000000   1.0000000   1.0000000   1.0000000
 NQMom=    0.0000000   0.0000000   0.0000000   0.0000000   0.0000000   0.0000000   0.0000000   0.0000000   0.0000000
 NMagM=    2.7928460   0.0000000   2.7928460   2.7928460   2.7928460   0.0000000   2.7928460   2.7928460   2.7928460
 AtZNuc=   1.0000000   6.0000000   1.0000000   1.0000000   1.0000000   6.0000000   1.0000000   1.0000000   1.0000000
 Leave Link  101 at Fri Jan 23 22:39:50 2026, MaxMem=  2147483648 cpu:               0.8 elap:               0.1
 (Enter /data/home/wyx/g16/l202.exe)
                          Input orientation:                          
 ---------------------------------------------------------------------
 Center     Atomic      Atomic             Coordinates (Angstroms)
 Number     Number       Type             X           Y           Z
 ---------------------------------------------------------------------
      1          8           0        2.838809   -1.571128    0.068736
      2          8           0       -3.427353   -1.641177   -0.082262
      3          7           0       -0.656723    1.516031   -0.234645
      4          1           0       -0.967862    2.475653   -0.285417
      5          6           0       -1.245636   -0.761057   -0.207138
      6          6           0        0.684977    1.325013   -0.046062
      7          6           0       -1.630886    0.569721   -0.253025
      8          6           0       -2.215241   -1.841272   -0.160243
      9          6           0        0.201203   -1.090320   -0.234406
     10          1           0        0.423308   -1.907329    0.457948
     11          1           0        0.464529   -1.536889   -1.208585
     12          6           0        1.148518    0.025151    0.026423
     13          6           0        2.516735   -0.399667    0.285161
     14          6           0       -3.018943    1.100641   -0.335118
     15          1           0       -3.018592    2.178649   -0.487134
     16          1           0       -3.570426    0.636659   -1.146450
     17          1           0       -3.576381    0.883996    0.571943
     18          6           0       -1.715791   -3.260995   -0.186936
     19          1           0       -2.536482   -3.926766   -0.429515
     20          1           0       -0.912240   -3.417795   -0.900131
     21          1           0       -1.332299   -3.547828    0.791364
     22          6           0        3.557068    0.531983    0.857866
     23          1           0        4.065357    1.075725    0.059011
     24          1           0        3.145927    1.257569    1.554840
     25          1           0        4.299723   -0.077657    1.367788
     26          6           0        1.468398    2.593322    0.027373
     27          1           0        1.662978    2.895519    1.056446
     28          1           0        2.423192    2.506740   -0.478761
     29          1           0        0.924131    3.407506   -0.449071
 ---------------------------------------------------------------------
                    Distance matrix (angstroms):
                    1          2          3          4          5
     1  O    0.000000
     2  O    6.268372   0.000000
     3  N    4.673471   4.203281   0.000000
     4  H    5.567100   4.799860   1.010079   0.000000
     5  C    4.173130   2.355864   2.352170   3.249550   0.000000
     6  C    3.611067   5.070587   1.368287   2.028088   2.846911
     7  C    4.966381   2.853861   1.358247   2.018224   1.386179
     8  C    5.066442   1.230989   3.702161   4.495271   1.452308
     9  C    2.698154   3.673283   2.743921   3.753063   1.484082
    10  H    2.469648   3.897468   3.655892   4.658162   2.131115
    11  H    2.696280   4.052928   3.395009   4.359412   2.128256
    12  C    2.325292   4.871043   2.355796   3.252886   2.530740
    13  C    1.234055   6.083464   3.743118   4.553618   3.811613
    14  C    6.450946   2.783577   2.400568   2.469830   2.574280
    15  H    6.977031   3.862911   2.466017   2.081921   3.444364
    16  H    6.886893   2.518234   3.177160   3.301002   2.870639
    17  H    6.887344   2.612794   3.094262   3.173769   2.957286
    18  C    4.864710   2.358858   4.893248   5.786037   2.543844
    19  H    5.889910   2.477530   5.761554   6.593353   3.425996
    20  H    4.291765   3.186075   4.985058   5.925681   2.765800
    21  H    4.672010   2.964421   5.210736   6.129812   2.961521
    22  C    2.358325   7.374863   4.462955   5.055684   5.086468
    23  H    2.917250   7.971337   4.751646   5.235621   5.625944
    24  H    3.210039   7.368232   4.210606   4.668355   5.144438
    25  H    2.460134   8.015918   5.447384   6.082757   5.805035
    26  C    4.384334   6.473900   2.396946   2.459074   4.321208
    27  H    4.723249   6.913012   2.991808   2.982986   4.840168
    28  H    4.135396   7.182709   3.244530   3.396704   4.920628
    29  H    5.359190   6.675265   2.474420   2.115365   4.705671
                    6          7          8          9         10
     6  C    0.000000
     7  C    2.444692   0.000000
     8  C    4.295307   2.482532   0.000000
     9  C    2.470495   2.472374   2.531527   0.000000
    10  H    3.281849   3.295599   2.710805   1.093704   0.000000
    11  H    3.096860   3.121164   2.893586   1.103535   1.707705
    12  C    1.381943   2.846003   3.851396   1.486510   2.108702
    13  C    2.537630   4.293264   4.966710   2.471566   2.585602
    14  C    3.721951   1.488394   3.054729   3.896125   4.639604
    15  H    3.826181   2.137565   4.112420   4.595336   5.425410
    16  H    4.448948   2.136470   2.991533   4.247289   4.999588
    17  H    4.328464   2.136420   3.133031   4.338002   4.878730
    18  C    5.178320   3.832227   1.505250   2.896368   2.612285
    19  H    6.173007   4.590169   2.127202   3.946950   3.691351
    20  H    5.076885   4.103106   2.175010   2.664598   2.430962
    21  H    5.339969   4.258417   2.144173   3.072975   2.425811
    22  C    3.113662   5.305692   6.323641   3.884167   3.991319
    23  H    3.391188   5.727180   6.928409   4.439542   4.724646
    24  H    2.936616   5.153586   6.425453   4.169578   4.316527
    25  H    4.127087   6.182092   6.920258   4.515571   4.382020
    26  C    1.492565   3.712027   5.768017   3.904296   4.640417
    27  H    2.153717   4.239527   6.241643   4.437341   4.996232
    28  H    2.145949   4.498727   6.365668   4.235066   4.935683
    29  H    2.134570   3.823555   6.122806   4.560608   5.414885
                   11         12         13         14         15
    11  H    0.000000
    12  C    2.105482   0.000000
    13  C    2.781385   1.455827   0.000000
    14  C    4.455792   4.319158   5.768830   0.000000
    15  H    5.143719   4.718697   6.154998   1.088674   0.000000
    16  H    4.583561   4.900817   6.338534   1.085206   1.765489
    17  H    5.035863   4.833206   6.233466   1.086477   1.763207
    18  C    2.961436   4.364464   5.130726   4.554562   5.601530
    19  H    3.914656   5.422615   6.203724   5.051386   6.124691
    20  H    2.351264   4.118143   4.719310   5.017340   5.993953
    21  H    3.357419   4.416533   4.998222   5.071685   6.104972
    22  C    4.256084   2.597939   1.509389   6.707496   6.910849
    23  H    4.625853   3.100438   2.150850   7.095299   7.190066
    24  H    4.757668   2.800813   2.180458   6.449976   6.558913
    25  H    4.845180   3.426357   2.110644   7.605994   7.879682
    26  C    4.426510   2.588016   3.181737   4.742966   4.535389
    27  H    5.119852   3.092673   3.490277   5.203693   4.981329
    28  H    4.551916   2.835188   3.006581   5.622685   5.451672
    29  H    5.023459   3.422977   4.191664   4.569731   4.129964
                   16         17         18         19         20
    16  H    0.000000
    17  H    1.736112   0.000000
    18  C    4.421769   4.606370   0.000000
    19  H    4.733697   5.022722   1.084264   0.000000
    20  H    4.854402   5.269730   1.085784   1.765982   0.000000
    21  H    5.125843   4.972435   1.089225   1.756188   1.747717
    22  C    7.404688   7.147850   6.578855   7.659579   6.218200
    23  H    7.742809   7.661333   7.231134   8.297461   6.774079
    24  H    7.265803   6.804048   6.862034   7.943851   6.659927
    25  H    8.292821   7.974407   6.981204   8.048580   6.592764
    26  C    5.531378   5.354264   6.667684   7.665465   6.531556
    27  H    6.110951   5.633103   7.131952   8.147829   7.093509
    28  H    6.313990   6.303345   7.105147   8.123472   6.811958
    29  H    5.325878   5.259770   7.176824   8.109733   7.082404
                   21         22         23         24         25
    21  H    0.000000
    22  C    6.368296   0.000000
    23  H    7.144807   1.091871   0.000000
    24  H    6.612809   1.086869   1.765198   0.000000
    25  H    6.640333   1.087758   1.760146   1.774560   0.000000
    26  C    6.792739   3.049816   3.008039   2.632773   4.116703
    27  H    7.110462   3.035344   3.174579   2.265042   3.986118
    28  H    7.237038   2.640438   2.243593   2.493653   3.689203
    29  H    7.416659   4.112064   3.944953   3.684327   5.180923
                   26         27         28         29
    26  C    0.000000
    27  H    1.090035   0.000000
    28  H    1.084112   1.756683   0.000000
    29  H    1.089092   1.753456   1.749127   0.000000
 Stoichiometry    C11H15NO2
 Framework group  C1[X(C11H15NO2)]
 Deg. of freedom    81
 Full point group                 C1      NOp   1
 RotChk:  IX=0 Diff= 1.54D-15
 Largest Abelian subgroup         C1      NOp   1
 Largest concise Abelian subgroup C1      NOp   1
                         Standard orientation:                         
 ---------------------------------------------------------------------
 Center     Atomic      Atomic             Coordinates (Angstroms)
 Number     Number       Type             X           Y           Z
 ---------------------------------------------------------------------
      1          8           0        2.285597   -2.283164   -0.251823
      2          8           0       -3.619906   -0.255440    0.301221
      3          7           0        0.020297    1.802599   -0.124185
      4          1           0        0.046552    2.812328   -0.128363
      5          6           0       -1.294051   -0.146954   -0.057556
      6          6           0        1.231404    1.166796   -0.089780
      7          6           0       -1.211862    1.236722   -0.044177
      8          6           0       -2.560327   -0.843630    0.085218
      9          6           0       -0.052987   -0.937407   -0.251062
     10          1           0       -0.049288   -1.814519    0.402275
     11          1           0       -0.055861   -1.398047   -1.253854
     12          6           0        1.235621   -0.215133   -0.085162
     13          6           0        2.400072   -1.083354    0.013213
     14          6           0       -2.341214    2.202840    0.036442
     15          1           0       -1.993831    3.225283   -0.101926
     16          1           0       -3.096206    1.989143   -0.713220
     17          1           0       -2.843573    2.140145    0.997763
     18          6           0       -2.572903   -2.345544   -0.014154
     19          1           0       -3.589867   -2.687395   -0.170842
     20          1           0       -1.945970   -2.725923   -0.814901
     21          1           0       -2.210684   -2.791093    0.911423
     22          6           0        3.745712   -0.580376    0.476377
     23          1           0        4.323082   -0.198580   -0.368051
     24          1           0        3.675798    0.205756    1.223633
     25          1           0        4.287923   -1.426623    0.892420
     26          6           0        2.398882    2.096712   -0.089861
     27          1           0        2.787500    2.266260    0.914333
     28          1           0        3.212118    1.721991   -0.701033
     29          1           0        2.114608    3.067887   -0.492514
 ---------------------------------------------------------------------
 Rotational constants (GHZ):           1.0767913           0.4902463           0.3439504
 Leave Link  202 at Fri Jan 23 22:39:50 2026, MaxMem=  2147483648 cpu:               0.0 elap:               0.0
 (Enter /data/home/wyx/g16/l301.exe)
 Standard basis: TZVP (5D, 7F)
 Ernie: Thresh=  0.10000D-02 Tol=  0.10000D-05 Strict=F.
 There are   370 symmetry adapted cartesian basis functions of A   symmetry.
 There are   356 symmetry adapted basis functions of A   symmetry.
   356 basis functions,   610 primitive gaussians,   370 cartesian basis functions
    52 alpha electrons       52 beta electrons
       nuclear repulsion energy       899.9703860147 Hartrees.
 IExCor=20419 DFT=T Ex+Corr=CAM-B3LYP ExCW=0 ScaHFX=  1.000000
 ScaDFX=  1.000000  1.000000  1.000000  0.810000 ScalE2=  1.000000  1.000000
 IRadAn=      5 IRanWt=     -1 IRanGd=            0 ICorTp=0 IEmpDi=141
 HFx  wShort=  0.000000 wLong=  0.330000 cFull=  0.190000 cShort=  0.000000 cLong=  0.460000
 DFx  wShort=  0.000000 wLong=  0.330000 cFull=  0.190000 cShort=  0.000000 cLong=  0.460000
 NAtoms=   29 NActive=   29 NUniq=   29 SFac= 1.00D+00 NAtFMM=   60 NAOKFM=F Big=F
 Integral buffers will be    131072 words long.
 Raffenetti 2 integral format.
 Two-electron integral symmetry is turned on.
 R6Disp:  Grimme-D3(BJ) Dispersion energy=       -0.0261533002 Hartrees.
 Nuclear repulsion after empirical dispersion term =      899.9442327145 Hartrees.
 ------------------------------------------------------------------------------
 Polarizable Continuum Model (PCM)
 =================================
 Model                : PCM.
 Atomic radii         : UFF (Universal Force Field).
 Polarization charges : Total charges.
 Charge compensation  : None.
 Solution method      : On-the-fly selection.
 Cavity type          : Scaled VdW (van der Waals Surface) (Alpha=1.100).
 Cavity algorithm     : GePol (No added spheres)
                        Default sphere list used, NSphG=   29.
                        Lebedev-Laikov grids with approx.  5.0 points / Ang**2.
                        Smoothing algorithm: York/Karplus (Gamma=1.0000).
                        Polarization charges: spherical gaussians, with
                                              point-specific exponents (IZeta= 3).
                        Self-potential: point-specific (ISelfS= 7).
                        Self-field    : sphere-specific E.n sum rule (ISelfD= 2).
 Solvent              : TetraHydroFuran, Eps=   7.425700 Eps(inf)=   1.974025
 ------------------------------------------------------------------------------
 GePol: Number of generator spheres                  =      29
 GePol: Total number of spheres                      =      29
 GePol: Number of exposed spheres                    =      29 (100.00%)
 GePol: Number of points                             =    2122
 GePol: Average weight of points                     =       0.13
 GePol: Minimum weight of points                     =   0.24D-09
 GePol: Maximum weight of points                     =    0.20577
 GePol: Number of points with low weight             =     143
 GePol: Fraction of low-weight points (<1% of avg)   =       6.74%
 GePol: Cavity surface area                          =    268.731 Ang**2
 GePol: Cavity volume                                =    286.787 Ang**3
 Leave Link  301 at Fri Jan 23 22:39:51 2026, MaxMem=  2147483648 cpu:               0.6 elap:               0.0
 (Enter /data/home/wyx/g16/l302.exe)
 NPDir=0 NMtPBC=     1 NCelOv=     1 NCel=       1 NClECP=     1 NCelD=      1
         NCelK=      1 NCelE2=     1 NClLst=     1 CellRange=     0.0.
 One-electron integrals computed using PRISM.
 One-electron integral symmetry used in STVInt
 NBasis=   356 RedAO= T EigKep=  4.40D-05  NBF=   356
 NBsUse=   356 1.00D-06 EigRej= -1.00D+00 NBFU=   356
 Precomputing XC quadrature grid using
 IXCGrd= 4 IRadAn=           5 IRanWt=          -1 IRanGd=           0 AccXCQ= 0.00D+00.
 Generated NRdTot=       0 NPtTot=           0 NUsed=           0 NTot=          32
 NSgBfM=   366   366   366   366   366 MxSgAt=    29 MxSgA2=    29.
 Leave Link  302 at Fri Jan 23 22:39:51 2026, MaxMem=  2147483648 cpu:               3.1 elap:               0.2
 (Enter /data/home/wyx/g16/l303.exe)
 DipDrv:  MaxL=1.
 Leave Link  303 at Fri Jan 23 22:39:51 2026, MaxMem=  2147483648 cpu:               0.5 elap:               0.0
 (Enter /data/home/wyx/g16/l401.exe)
 Initial guess from the checkpoint file:  "DDL-S2-cLR-gs-6.chk"
 B after Tr=     0.000000   -0.000000    0.000000
         Rot=    1.000000   -0.000000    0.000000   -0.000000 Ang=   0.00 deg.
 Guess basis will be translated and rotated to current coordinates.
 JPrj=2 DoOrth=T DoCkMO=T.
 Leave Link  401 at Fri Jan 23 22:39:51 2026, MaxMem=  2147483648 cpu:               2.2 elap:               0.2
 (Enter /data/home/wyx/g16/l502.exe)
 Integral symmetry usage will be decided dynamically.
 Closed shell SCF:
 Using DIIS extrapolation, IDIIS=  1040.
 NGot=  2147483648 LenX=  2147200095 LenY=  2147062754
 Requested convergence on RMS density matrix=1.00D-08 within 128 cycles.
 Requested convergence on MAX density matrix=1.00D-06.
 Requested convergence on             energy=1.00D-06.
 No special actions if energy rises.
 Fock matrices will be formed incrementally for  20 cycles.

 Cycle   1  Pass 1  IDiag  1:
 FoFJK:  IHMeth= 1 ICntrl=       0 DoSepK=T KAlg= 0 I1Cent=           0 FoldK=F
 IRaf=         1 NMat=       1 IRICut=       1 DoRegI=T DoRafI=F ISym2E= 0 IDoP0=0 IntGTp=1.
 FoFCou: FMM=F IPFlag=           0 FMFlag=      100000 FMFlg1=           0
         NFxFlg=           0 DoJE=T BraDBF=F KetDBF=F FulRan=T
         wScrn=  0.000000 ICntrl=       500 IOpCl=  0 I1Cent=           0 NGrid=           0
         NMat0=    1 NMatS0=      1 NMatT0=    0 NMatD0=    1 NMtDS0=    0 NMtDT0=    0
 Symmetry not used in FoFCou.
 Inv3:  Mode=1 IEnd=    13508652.
 Iteration    1 A*A^-1 deviation from unit magnitude is 2.89D-15 for    380.
 Iteration    1 A*A^-1 deviation from orthogonality  is 1.63D-15 for   1391     29.
 Iteration    1 A^-1*A deviation from unit magnitude is 2.89D-15 for   1270.
 Iteration    1 A^-1*A deviation from orthogonality  is 1.95D-15 for   1421    976.
 NEqPCM:  Using non-equilibrium solvation (IEInf=1, Eps=   7.4257, EpsInf=   1.9740)
 Inv3:  Mode=1 IEnd=    13508652.
 Iteration    1 A*A^-1 deviation from unit magnitude is 3.33D-15 for    884.
 Iteration    1 A*A^-1 deviation from orthogonality  is 2.05D-15 for   1363     16.
 Iteration    1 A^-1*A deviation from unit magnitude is 3.11D-15 for    884.
 Iteration    1 A^-1*A deviation from orthogonality  is 3.00D-15 for   1953    359.
 E= -633.322440339658    
 DIIS: error= 4.98D-04 at cycle   1 NSaved=   1.
 NSaved= 1 IEnMin= 1 EnMin= -633.322440339658     IErMin= 1 ErrMin= 4.98D-04
 ErrMax= 4.98D-04  0.00D+00 EMaxC= 1.00D-01 BMatC= 5.11D-05 BMatP= 5.11D-05
 IDIUse=3 WtCom= 9.95D-01 WtEn= 4.98D-03
 Coeff-Com:  0.100D+01
 Coeff-En:   0.100D+01
 Coeff:      0.100D+01
 Gap=     0.224 Goal=   None    Shift=    0.000
 RMSDP=3.09D-04 MaxDP=2.09D-02              OVMax= 8.57D-03

 Cycle   2  Pass 1  IDiag  1:
 RMSU=  3.06D-04    CP:  1.00D+00
 E= -633.322537007775     Delta-E=       -0.000096668117 Rises=F Damp=F
 DIIS: error= 3.40D-04 at cycle   2 NSaved=   2.
 NSaved= 2 IEnMin= 2 EnMin= -633.322537007775     IErMin= 2 ErrMin= 3.40D-04
 ErrMax= 3.40D-04  0.00D+00 EMaxC= 1.00D-01 BMatC= 5.03D-05 BMatP= 5.11D-05
 IDIUse=3 WtCom= 9.97D-01 WtEn= 3.40D-03
 Coeff-Com:  0.497D+00 0.503D+00
 Coeff-En:   0.000D+00 0.100D+01
 Coeff:      0.495D+00 0.505D+00
 Gap=     0.224 Goal=   None    Shift=    0.000
 RMSDP=8.46D-05 MaxDP=4.66D-03 DE=-9.67D-05 OVMax= 1.77D-03

 Cycle   3  Pass 1  IDiag  1:
 RMSU=  7.77D-05    CP:  1.00D+00  9.74D-01
 E= -633.322576387573     Delta-E=       -0.000039379798 Rises=F Damp=F
 DIIS: error= 1.29D-04 at cycle   3 NSaved=   3.
 NSaved= 3 IEnMin= 3 EnMin= -633.322576387573     IErMin= 3 ErrMin= 1.29D-04
 ErrMax= 1.29D-04  0.00D+00 EMaxC= 1.00D-01 BMatC= 6.30D-06 BMatP= 5.03D-05
 IDIUse=3 WtCom= 9.99D-01 WtEn= 1.29D-03
 Coeff-Com:  0.633D-01 0.237D+00 0.699D+00
 Coeff-En:   0.000D+00 0.000D+00 0.100D+01
 Coeff:      0.632D-01 0.237D+00 0.700D+00
 Gap=     0.224 Goal=   None    Shift=    0.000
 RMSDP=2.30D-05 MaxDP=1.12D-03 DE=-3.94D-05 OVMax= 1.28D-03

 Cycle   4  Pass 1  IDiag  1:
 RMSU=  1.68D-05    CP:  1.00D+00  9.96D-01  1.18D+00
 E= -633.322582090696     Delta-E=       -0.000005703122 Rises=F Damp=F
 DIIS: error= 6.34D-05 at cycle   4 NSaved=   4.
 NSaved= 4 IEnMin= 4 EnMin= -633.322582090696     IErMin= 4 ErrMin= 6.34D-05
 ErrMax= 6.34D-05  0.00D+00 EMaxC= 1.00D-01 BMatC= 5.53D-07 BMatP= 6.30D-06
 IDIUse=1 WtCom= 1.00D+00 WtEn= 0.00D+00
 Coeff-Com: -0.141D-01 0.159D-01 0.215D+00 0.783D+00
 Coeff:     -0.141D-01 0.159D-01 0.215D+00 0.783D+00
 Gap=     0.224 Goal=   None    Shift=    0.000
 RMSDP=1.56D-05 MaxDP=8.42D-04 DE=-5.70D-06 OVMax= 7.95D-04

 Cycle   5  Pass 1  IDiag  1:
 RMSU=  7.65D-06    CP:  1.00D+00  1.01D+00  1.34D+00  1.06D+00
 E= -633.322582932504     Delta-E=       -0.000000841808 Rises=F Damp=F
 DIIS: error= 2.20D-05 at cycle   5 NSaved=   5.
 NSaved= 5 IEnMin= 5 EnMin= -633.322582932504     IErMin= 5 ErrMin= 2.20D-05
 ErrMax= 2.20D-05  0.00D+00 EMaxC= 1.00D-01 BMatC= 1.59D-07 BMatP= 5.53D-07
 IDIUse=1 WtCom= 1.00D+00 WtEn= 0.00D+00
 Coeff-Com: -0.139D-01-0.340D-01-0.678D-02 0.363D+00 0.692D+00
 Coeff:     -0.139D-01-0.340D-01-0.678D-02 0.363D+00 0.692D+00
 Gap=     0.224 Goal=   None    Shift=    0.000
 RMSDP=6.33D-06 MaxDP=2.95D-04 DE=-8.42D-07 OVMax= 3.12D-04

 Cycle   6  Pass 1  IDiag  1:
 RMSU=  2.55D-06    CP:  1.00D+00  1.01D+00  1.40D+00  1.25D+00  1.06D+00
 E= -633.322583192424     Delta-E=       -0.000000259920 Rises=F Damp=F
 DIIS: error= 1.72D-05 at cycle   6 NSaved=   6.
 NSaved= 6 IEnMin= 6 EnMin= -633.322583192424     IErMin= 6 ErrMin= 1.72D-05
 ErrMax= 1.72D-05  0.00D+00 EMaxC= 1.00D-01 BMatC= 1.76D-08 BMatP= 1.59D-07
 IDIUse=1 WtCom= 1.00D+00 WtEn= 0.00D+00
 Coeff-Com: -0.618D-03-0.169D-01-0.272D-01 0.567D-03 0.179D+00 0.866D+00
 Coeff:     -0.618D-03-0.169D-01-0.272D-01 0.567D-03 0.179D+00 0.866D+00
 Gap=     0.224 Goal=   None    Shift=    0.000
 RMSDP=2.88D-06 MaxDP=1.14D-04 DE=-2.60D-07 OVMax= 2.52D-04

 Cycle   7  Pass 1  IDiag  1:
 RMSU=  1.15D-06    CP:  1.00D+00  1.00D+00  1.43D+00  1.32D+00  1.16D+00
                    CP:  1.28D+00
 E= -633.322583248074     Delta-E=       -0.000000055650 Rises=F Damp=F
 DIIS: error= 6.88D-06 at cycle   7 NSaved=   7.
 NSaved= 7 IEnMin= 7 EnMin= -633.322583248074     IErMin= 7 ErrMin= 6.88D-06
 ErrMax= 6.88D-06  0.00D+00 EMaxC= 1.00D-01 BMatC= 9.32D-09 BMatP= 1.76D-08
 IDIUse=1 WtCom= 1.00D+00 WtEn= 0.00D+00
 Coeff-Com:  0.272D-02-0.342D-02-0.850D-02-0.752D-01-0.104D+00 0.456D+00
 Coeff-Com:  0.733D+00
 Coeff:      0.272D-02-0.342D-02-0.850D-02-0.752D-01-0.104D+00 0.456D+00
 Coeff:      0.733D+00
 Gap=     0.224 Goal=   None    Shift=    0.000
 RMSDP=1.36D-06 MaxDP=5.19D-05 DE=-5.56D-08 OVMax= 1.32D-04

 Cycle   8  Pass 1  IDiag  1:
 RMSU=  4.44D-07    CP:  1.00D+00  1.00D+00  1.44D+00  1.36D+00  1.22D+00
                    CP:  1.53D+00  1.13D+00
 E= -633.322583266161     Delta-E=       -0.000000018087 Rises=F Damp=F
 DIIS: error= 2.30D-06 at cycle   8 NSaved=   8.
 NSaved= 8 IEnMin= 8 EnMin= -633.322583266161     IErMin= 8 ErrMin= 2.30D-06
 ErrMax= 2.30D-06  0.00D+00 EMaxC= 1.00D-01 BMatC= 9.03D-10 BMatP= 9.32D-09
 IDIUse=1 WtCom= 1.00D+00 WtEn= 0.00D+00
 Coeff-Com:  0.111D-02 0.698D-03 0.242D-02-0.244D-01-0.832D-01 0.180D-01
 Coeff-Com:  0.246D+00 0.839D+00
 Coeff:      0.111D-02 0.698D-03 0.242D-02-0.244D-01-0.832D-01 0.180D-01
 Coeff:      0.246D+00 0.839D+00
 Gap=     0.224 Goal=   None    Shift=    0.000
 RMSDP=5.47D-07 MaxDP=2.01D-05 DE=-1.81D-08 OVMax= 5.20D-05

 Cycle   9  Pass 1  IDiag  1:
 RMSU=  1.57D-07    CP:  1.00D+00  1.00D+00  1.44D+00  1.37D+00  1.22D+00
                    CP:  1.66D+00  1.32D+00  1.14D+00
 E= -633.322583268360     Delta-E=       -0.000000002199 Rises=F Damp=F
 DIIS: error= 7.54D-07 at cycle   9 NSaved=   9.
 NSaved= 9 IEnMin= 9 EnMin= -633.322583268360     IErMin= 9 ErrMin= 7.54D-07
 ErrMax= 7.54D-07  0.00D+00 EMaxC= 1.00D-01 BMatC= 1.16D-10 BMatP= 9.03D-10
 IDIUse=1 WtCom= 1.00D+00 WtEn= 0.00D+00
 Coeff-Com:  0.234D-04 0.644D-03 0.218D-02 0.390D-02-0.191D-01-0.599D-01
 Coeff-Com: -0.207D-02 0.338D+00 0.736D+00
 Coeff:      0.234D-04 0.644D-03 0.218D-02 0.390D-02-0.191D-01-0.599D-01
 Coeff:     -0.207D-02 0.338D+00 0.736D+00
 Gap=     0.224 Goal=   None    Shift=    0.000
 RMSDP=1.83D-07 MaxDP=9.90D-06 DE=-2.20D-09 OVMax= 1.55D-05

 Cycle  10  Pass 1  IDiag  1:
 RMSU=  7.14D-08    CP:  1.00D+00  1.00D+00  1.44D+00  1.38D+00  1.21D+00
                    CP:  1.69D+00  1.39D+00  1.25D+00  9.69D-01
 E= -633.322583268582     Delta-E=       -0.000000000222 Rises=F Damp=F
 DIIS: error= 2.34D-07 at cycle  10 NSaved=  10.
 NSaved=10 IEnMin=10 EnMin= -633.322583268582     IErMin=10 ErrMin= 2.34D-07
 ErrMax= 2.34D-07  0.00D+00 EMaxC= 1.00D-01 BMatC= 2.42D-11 BMatP= 1.16D-10
 IDIUse=1 WtCom= 1.00D+00 WtEn= 0.00D+00
 Coeff-Com: -0.955D-04 0.327D-03 0.317D-03 0.420D-02 0.130D-02-0.267D-01
 Coeff-Com: -0.261D-01 0.236D-01 0.311D+00 0.712D+00
 Coeff:     -0.955D-04 0.327D-03 0.317D-03 0.420D-02 0.130D-02-0.267D-01
 Coeff:     -0.261D-01 0.236D-01 0.311D+00 0.712D+00
 Gap=     0.224 Goal=   None    Shift=    0.000
 RMSDP=6.02D-08 MaxDP=3.06D-06 DE=-2.22D-10 OVMax= 4.13D-06

 Cycle  11  Pass 1  IDiag  1:
 RMSU=  2.07D-08    CP:  1.00D+00  1.00D+00  1.44D+00  1.38D+00  1.21D+00
                    CP:  1.70D+00  1.41D+00  1.28D+00  1.11D+00  1.09D+00
 E= -633.322583268605     Delta-E=       -0.000000000023 Rises=F Damp=F
 DIIS: error= 1.10D-07 at cycle  11 NSaved=  11.
 NSaved=11 IEnMin=11 EnMin= -633.322583268605     IErMin=11 ErrMin= 1.10D-07
 ErrMax= 1.10D-07  0.00D+00 EMaxC= 1.00D-01 BMatC= 4.50D-12 BMatP= 2.42D-11
 IDIUse=1 WtCom= 1.00D+00 WtEn= 0.00D+00
 Coeff-Com: -0.612D-04 0.102D-03-0.314D-03 0.162D-02 0.442D-02-0.217D-02
 Coeff-Com: -0.113D-01-0.571D-01 0.249D-01 0.332D+00 0.708D+00
 Coeff:     -0.612D-04 0.102D-03-0.314D-03 0.162D-02 0.442D-02-0.217D-02
 Coeff:     -0.113D-01-0.571D-01 0.249D-01 0.332D+00 0.708D+00
 Gap=     0.224 Goal=   None    Shift=    0.000
 RMSDP=3.28D-08 MaxDP=2.53D-06 DE=-2.30D-11 OVMax= 1.47D-06

 Cycle  12  Pass 1  IDiag  1:
 RMSU=  1.13D-08    CP:  1.00D+00  1.00D+00  1.44D+00  1.38D+00  1.21D+00
                    CP:  1.70D+00  1.41D+00  1.30D+00  1.13D+00  1.25D+00
                    CP:  9.72D-01
 E= -633.322583268603     Delta-E=        0.000000000002 Rises=F Damp=F
 DIIS: error= 4.18D-08 at cycle  12 NSaved=  12.
 NSaved=12 IEnMin=11 EnMin= -633.322583268605     IErMin=12 ErrMin= 4.18D-08
 ErrMax= 4.18D-08  0.00D+00 EMaxC= 1.00D-01 BMatC= 6.20D-13 BMatP= 4.50D-12
 IDIUse=1 WtCom= 1.00D+00 WtEn= 0.00D+00
 Coeff-Com: -0.141D-04 0.242D-04-0.180D-03 0.143D-03 0.163D-02 0.252D-02
 Coeff-Com: -0.342D-03-0.267D-01-0.243D-01 0.391D-01 0.318D+00 0.690D+00
 Coeff:     -0.141D-04 0.242D-04-0.180D-03 0.143D-03 0.163D-02 0.252D-02
 Coeff:     -0.342D-03-0.267D-01-0.243D-01 0.391D-01 0.318D+00 0.690D+00
 Gap=     0.224 Goal=   None    Shift=    0.000
 RMSDP=7.23D-09 MaxDP=4.23D-07 DE= 1.93D-12 OVMax= 5.10D-07

 Error on total polarization charges =  0.00919
 SCF Done:  E(RCAM-B3LYP) =  -633.322583269     A.U. after   12 cycles
            NFock= 12  Conv=0.72D-08     -V/T= 2.0042
 KE= 6.307027018640D+02 PE=-3.275977268693D+03 EE= 1.112007750846D+03
 Leave Link  502 at Fri Jan 23 22:40:40 2026, MaxMem=  2147483648 cpu:             759.8 elap:              48.2
 (Enter /data/home/wyx/g16/l601.exe)
 Copying SCF densities to generalized density rwf, IOpCl= 0 IROHF=0.

 **********************************************************************

            Population analysis using the SCF density.

 **********************************************************************

 Orbital symmetries:
       Occupied  (A) (A) (A) (A) (A) (A) (A) (A) (A) (A) (A) (A)
                 (A) (A) (A) (A) (A) (A) (A) (A) (A) (A) (A) (A)
                 (A) (A) (A) (A) (A) (A) (A) (A) (A) (A) (A) (A)
                 (A) (A) (A) (A) (A) (A) (A) (A) (A) (A) (A) (A)
                 (A) (A) (A) (A)
       Virtual   (A) (A) (A) (A) (A) (A) (A) (A) (A) (A) (A) (A)
                 (A) (A) (A) (A) (A) (A) (A) (A) (A) (A) (A) (A)
                 (A) (A) (A) (A) (A) (A) (A) (A) (A) (A) (A) (A)
                 (A) (A) (A) (A) (A) (A) (A) (A) (A) (A) (A) (A)
                 (A) (A) (A) (A) (A) (A) (A) (A) (A) (A) (A) (A)
                 (A) (A) (A) (A) (A) (A) (A) (A) (A) (A) (A) (A)
                 (A) (A) (A) (A) (A) (A) (A) (A) (A) (A) (A) (A)
                 (A) (A) (A) (A) (A) (A) (A) (A) (A) (A) (A) (A)
                 (A) (A) (A) (A) (A) (A) (A) (A) (A) (A) (A) (A)
                 (A) (A) (A) (A) (A) (A) (A) (A) (A) (A) (A) (A)
                 (A) (A) (A) (A) (A) (A) (A) (A) (A) (A) (A) (A)
                 (A) (A) (A) (A) (A) (A) (A) (A) (A) (A) (A) (A)
                 (A) (A) (A) (A) (A) (A) (A) (A) (A) (A) (A) (A)
                 (A) (A) (A) (A) (A) (A) (A) (A) (A) (A) (A) (A)
                 (A) (A) (A) (A) (A) (A) (A) (A) (A) (A) (A) (A)
                 (A) (A) (A) (A) (A) (A) (A) (A) (A) (A) (A) (A)
                 (A) (A) (A) (A) (A) (A) (A) (A) (A) (A) (A) (A)
                 (A) (A) (A) (A) (A) (A) (A) (A) (A) (A) (A) (A)
                 (A) (A) (A) (A) (A) (A) (A) (A) (A) (A) (A) (A)
                 (A) (A) (A) (A) (A) (A) (A) (A) (A) (A) (A) (A)
                 (A) (A) (A) (A) (A) (A) (A) (A) (A) (A) (A) (A)
                 (A) (A) (A) (A) (A) (A) (A) (A) (A) (A) (A) (A)
                 (A) (A) (A) (A) (A) (A) (A) (A) (A) (A) (A) (A)
                 (A) (A) (A) (A) (A) (A) (A) (A) (A) (A) (A) (A)
                 (A) (A) (A) (A) (A) (A) (A) (A) (A) (A) (A) (A)
                 (A) (A) (A) (A)
 The electronic state is 1-A.
 Alpha  occ. eigenvalues --  -19.18076 -19.16690 -14.44806 -10.33628 -10.32909
 Alpha  occ. eigenvalues --  -10.32539 -10.32007 -10.26489 -10.25544 -10.24953
 Alpha  occ. eigenvalues --  -10.24690 -10.24656 -10.24537 -10.23219  -1.11831
 Alpha  occ. eigenvalues --   -1.10722  -1.08472  -0.91642  -0.90601  -0.84050
 Alpha  occ. eigenvalues --   -0.82777  -0.81815  -0.78575  -0.74099  -0.72091
 Alpha  occ. eigenvalues --   -0.68787  -0.61703  -0.58438  -0.57129  -0.55374
 Alpha  occ. eigenvalues --   -0.54836  -0.54014  -0.52608  -0.51928  -0.51048
 Alpha  occ. eigenvalues --   -0.49970  -0.49495  -0.49237  -0.48815  -0.48167
 Alpha  occ. eigenvalues --   -0.47215  -0.45425  -0.44874  -0.44043  -0.43412
 Alpha  occ. eigenvalues --   -0.42359  -0.42227  -0.41471  -0.32858  -0.32373
 Alpha  occ. eigenvalues --   -0.30830  -0.25515
 Alpha virt. eigenvalues --   -0.03135   0.02507   0.05977   0.07900   0.08269
 Alpha virt. eigenvalues --    0.09615   0.10783   0.11638   0.12411   0.13307
 Alpha virt. eigenvalues --    0.13788   0.14631   0.15480   0.16313   0.16945
 Alpha virt. eigenvalues --    0.17602   0.17749   0.17947   0.18305   0.19275
 Alpha virt. eigenvalues --    0.19760   0.22025   0.22621   0.23324   0.23643
 Alpha virt. eigenvalues --    0.23703   0.24757   0.25479   0.26292   0.26588
 Alpha virt. eigenvalues --    0.27069   0.27843   0.28363   0.29179   0.30143
 Alpha virt. eigenvalues --    0.31542   0.31788   0.32291   0.33307   0.34304
 Alpha virt. eigenvalues --    0.34666   0.35914   0.36709   0.37900   0.38375
 Alpha virt. eigenvalues --    0.39671   0.40846   0.41291   0.41714   0.42319
 Alpha virt. eigenvalues --    0.43901   0.44650   0.45446   0.46079   0.46471
 Alpha virt. eigenvalues --    0.47159   0.47618   0.47990   0.48306   0.48967
 Alpha virt. eigenvalues --    0.49348   0.50552   0.51296   0.51457   0.51596
 Alpha virt. eigenvalues --    0.52751   0.52890   0.53211   0.53855   0.54191
 Alpha virt. eigenvalues --    0.54330   0.55310   0.55911   0.56606   0.58155
 Alpha virt. eigenvalues --    0.58303   0.59619   0.60964   0.61284   0.62925
 Alpha virt. eigenvalues --    0.63715   0.65297   0.66342   0.66822   0.67646
 Alpha virt. eigenvalues --    0.68656   0.69665   0.70791   0.71447   0.72092
 Alpha virt. eigenvalues --    0.73017   0.74289   0.74802   0.75698   0.77598
 Alpha virt. eigenvalues --    0.78861   0.79981   0.83012   0.85920   0.87012
 Alpha virt. eigenvalues --    0.90628   0.95018   1.01596   1.03958   1.22571
 Alpha virt. eigenvalues --    1.24463   1.26930   1.28408   1.29231   1.30674
 Alpha virt. eigenvalues --    1.32106   1.32847   1.34166   1.34966   1.36021
 Alpha virt. eigenvalues --    1.36561   1.37901   1.38244   1.38674   1.39542
 Alpha virt. eigenvalues --    1.39866   1.40468   1.40650   1.41213   1.41797
 Alpha virt. eigenvalues --    1.43363   1.43502   1.44251   1.45240   1.47300
 Alpha virt. eigenvalues --    1.47909   1.49371   1.49841   1.50144   1.50610
 Alpha virt. eigenvalues --    1.51107   1.52365   1.52524   1.55125   1.58221
 Alpha virt. eigenvalues --    1.59012   1.60282   1.60802   1.61420   1.62385
 Alpha virt. eigenvalues --    1.62501   1.63195   1.63940   1.64365   1.65932
 Alpha virt. eigenvalues --    1.66455   1.66984   1.67401   1.67921   1.68403
 Alpha virt. eigenvalues --    1.68997   1.69695   1.70103   1.70997   1.72198
 Alpha virt. eigenvalues --    1.73960   1.74856   1.75821   1.76671   1.78523
 Alpha virt. eigenvalues --    1.81109   1.82628   1.83764   1.85642   1.86517
 Alpha virt. eigenvalues --    1.86743   1.88129   1.88620   1.88820   1.90249
 Alpha virt. eigenvalues --    1.91037   1.94395   1.94904   1.98942   1.99766
 Alpha virt. eigenvalues --    2.01316   2.03761   2.05265   2.06706   2.09438
 Alpha virt. eigenvalues --    2.10542   2.11957   2.15345   2.17453   2.19544
 Alpha virt. eigenvalues --    2.20241   2.21038   2.21916   2.22847   2.26477
 Alpha virt. eigenvalues --    2.27147   2.27365   2.29198   2.31253   2.32206
 Alpha virt. eigenvalues --    2.33877   2.34133   2.36700   2.37878   2.38885
 Alpha virt. eigenvalues --    2.39431   2.40303   2.41415   2.42810   2.44882
 Alpha virt. eigenvalues --    2.45950   2.47867   2.49432   2.50258   2.51134
 Alpha virt. eigenvalues --    2.52261   2.54137   2.54768   2.56516   2.57526
 Alpha virt. eigenvalues --    2.58650   2.61042   2.61617   2.62514   2.63252
 Alpha virt. eigenvalues --    2.64646   2.65701   2.66561   2.67318   2.68476
 Alpha virt. eigenvalues --    2.71689   2.71991   2.73577   2.74646   2.75421
 Alpha virt. eigenvalues --    2.76021   2.76827   2.77148   2.77993   2.79103
 Alpha virt. eigenvalues --    2.80884   2.81928   2.83183   2.84009   2.84609
 Alpha virt. eigenvalues --    2.85608   2.86339   2.88610   2.89462   2.92091
 Alpha virt. eigenvalues --    2.97336   2.99378   3.00690   3.06256   3.10673
 Alpha virt. eigenvalues --    3.12113   3.15205   3.17334   3.18751   3.21241
 Alpha virt. eigenvalues --    3.21935   3.23616   3.24684   3.25629   3.27240
 Alpha virt. eigenvalues --    3.28006   3.30287   3.32911   3.34713   3.36373
 Alpha virt. eigenvalues --    3.37818   3.38591   3.39840   3.40018   3.41944
 Alpha virt. eigenvalues --    3.42151   3.44168   3.45087   3.47779   3.48500
 Alpha virt. eigenvalues --    3.49470   3.49852   3.55420   3.58359   3.60110
 Alpha virt. eigenvalues --    3.60941   3.90798   4.00406   4.33374   4.36843
 Alpha virt. eigenvalues --   21.66684  21.80557  22.08177  22.10464  22.11952
 Alpha virt. eigenvalues --   22.14880  22.15321  22.18671  22.19495  22.24745
 Alpha virt. eigenvalues --   22.28277  31.91655  43.63669  43.66828
          Condensed to atoms (all electrons):
               1          2          3          4          5          6
     1  O    7.929997   0.000000  -0.000195   0.000019   0.018714   0.010840
     2  O    0.000000   7.954967   0.000528   0.000025  -0.190074   0.001186
     3  N   -0.000195   0.000528   6.389552   0.371001  -0.123588   0.328038
     4  H    0.000019   0.000025   0.371001   0.412837   0.015972  -0.047216
     5  C    0.018714  -0.190074  -0.123588   0.015972   7.113568  -0.082186
     6  C    0.010840   0.001186   0.328038  -0.047216  -0.082186   5.604039
     7  C   -0.000157  -0.046371   0.385494  -0.037612   0.447062  -0.119701
     8  C   -0.000601   0.700013   0.004606  -0.000776  -0.284443   0.030261
     9  C   -0.008352   0.024886   0.013864   0.000051  -0.690712  -0.053443
    10  H    0.010070  -0.000025  -0.001282   0.000022  -0.120382   0.028945
    11  H    0.006621   0.000123   0.003694   0.000031  -0.044054  -0.020184
    12  C   -0.230061  -0.002939  -0.091556   0.014613   0.198155  -0.121423
    13  C    0.716764  -0.000014   0.001636   0.000535   0.082304   0.140067
    14  C   -0.000008   0.001371  -0.033883  -0.009851  -0.087558   0.012184
    15  H   -0.000000   0.004225   0.004125   0.001958   0.021298   0.006586
    16  H   -0.000000   0.001315   0.000214   0.000801  -0.008086  -0.001159
    17  H   -0.000000   0.002144  -0.002231   0.000935  -0.008512  -0.001559
    18  C    0.000198  -0.102043  -0.000483   0.000022  -0.258718   0.000015
    19  H   -0.000001   0.007711   0.000003  -0.000001   0.020992   0.000026
    20  H    0.000131   0.004041   0.000115   0.000001   0.045061  -0.001234
    21  H   -0.000001   0.000817   0.000012  -0.000001   0.003355   0.000224
    22  C   -0.106093   0.000000  -0.000206   0.000121   0.004219  -0.020814
    23  H    0.001382   0.000000   0.000004  -0.000013  -0.000023   0.009427
    24  H    0.004980  -0.000000   0.000120  -0.000055  -0.000696  -0.028615
    25  H    0.006839   0.000000   0.000025  -0.000003  -0.000149  -0.000846
    26  C    0.000841   0.000009  -0.026582  -0.006378   0.000398   0.185249
    27  H   -0.000051  -0.000000  -0.002616   0.000474   0.000410  -0.033473
    28  H   -0.000249  -0.000000   0.001647   0.000776   0.000003  -0.046132
    29  H    0.000024   0.000000   0.001512   0.001774  -0.000384  -0.050094
               7          8          9         10         11         12
     1  O   -0.000157  -0.000601  -0.008352   0.010070   0.006621  -0.230061
     2  O   -0.046371   0.700013   0.024886  -0.000025   0.000123  -0.002939
     3  N    0.385494   0.004606   0.013864  -0.001282   0.003694  -0.091556
     4  H   -0.037612  -0.000776   0.000051   0.000022   0.000031   0.014613
     5  C    0.447062  -0.284443  -0.690712  -0.120382  -0.044054   0.198155
     6  C   -0.119701   0.030261  -0.053443   0.028945  -0.020184  -0.121423
     7  C    5.426389  -0.215452  -0.212671   0.016830  -0.005883   0.022533
     8  C   -0.215452   5.348432   0.181331  -0.008433  -0.003316  -0.048402
     9  C   -0.212671   0.181331   6.448449   0.543772   0.406396  -0.136920
    10  H    0.016830  -0.008433   0.543772   0.524170  -0.045118  -0.110226
    11  H   -0.005883  -0.003316   0.406396  -0.045118   0.576862  -0.015835
    12  C    0.022533  -0.048402  -0.136920  -0.110226  -0.015835   7.408750
    13  C    0.016515  -0.008023  -0.249864  -0.001754  -0.005625  -0.470562
    14  C    0.277982  -0.023934   0.009482   0.000512  -0.001000  -0.002576
    15  H   -0.088460   0.005331   0.000634  -0.000005   0.000049  -0.001524
    16  H   -0.021114  -0.007090  -0.000606  -0.000053   0.000185   0.000149
    17  H   -0.017042  -0.002366   0.000840   0.000059  -0.000064   0.000487
    18  C    0.000206   0.318127   0.002825   0.005847  -0.011461  -0.001981
    19  H    0.000140  -0.048773  -0.001660   0.000570   0.000083  -0.000180
    20  H    0.003295  -0.070857  -0.008701  -0.006574   0.002368   0.007936
    21  H   -0.000244  -0.024315  -0.009681  -0.000833   0.000782  -0.002993
    22  C    0.000176  -0.000076   0.008607  -0.000556   0.002767  -0.257568
    23  H   -0.000003   0.000002  -0.002224  -0.000124   0.000179  -0.011169
    24  H   -0.000021   0.000004   0.003090   0.000051  -0.000196   0.066732
    25  H    0.000009   0.000003   0.000178  -0.000064  -0.000081   0.020543
    26  C    0.002435   0.000745   0.022503   0.000110  -0.000718  -0.083290
    27  H   -0.000818  -0.000013  -0.000404   0.000038  -0.000009  -0.018155
    28  H   -0.000711   0.000002  -0.000308   0.000015  -0.000121  -0.008411
    29  H    0.003202  -0.000006  -0.000528  -0.000014   0.000095   0.023703
              13         14         15         16         17         18
     1  O    0.716764  -0.000008  -0.000000  -0.000000  -0.000000   0.000198
     2  O   -0.000014   0.001371   0.004225   0.001315   0.002144  -0.102043
     3  N    0.001636  -0.033883   0.004125   0.000214  -0.002231  -0.000483
     4  H    0.000535  -0.009851   0.001958   0.000801   0.000935   0.000022
     5  C    0.082304  -0.087558   0.021298  -0.008086  -0.008512  -0.258718
     6  C    0.140067   0.012184   0.006586  -0.001159  -0.001559   0.000015
     7  C    0.016515   0.277982  -0.088460  -0.021114  -0.017042   0.000206
     8  C   -0.008023  -0.023934   0.005331  -0.007090  -0.002366   0.318127
     9  C   -0.249864   0.009482   0.000634  -0.000606   0.000840   0.002825
    10  H   -0.001754   0.000512  -0.000005  -0.000053   0.000059   0.005847
    11  H   -0.005625  -0.001000   0.000049   0.000185  -0.000064  -0.011461
    12  C   -0.470562  -0.002576  -0.001524   0.000149   0.000487  -0.001981
    13  C    5.543303   0.000043  -0.000037  -0.000003  -0.000008   0.001273
    14  C    0.000043   5.022656   0.392669   0.416840   0.407361   0.001931
    15  H   -0.000037   0.392669   0.586958  -0.028986  -0.027291   0.000257
    16  H   -0.000003   0.416840  -0.028986   0.504146  -0.023722  -0.000241
    17  H   -0.000008   0.407361  -0.027291  -0.023722   0.502577  -0.000006
    18  C    0.001273   0.001931   0.000257  -0.000241  -0.000006   5.325393
    19  H   -0.000015  -0.000011  -0.000004   0.000040  -0.000028   0.396909
    20  H    0.000783   0.000045  -0.000015  -0.000029   0.000003   0.379764
    21  H   -0.000149  -0.000244  -0.000005   0.000016  -0.000006   0.398821
    22  C    0.283345  -0.000013   0.000002  -0.000000   0.000000   0.000040
    23  H   -0.022223  -0.000001   0.000000  -0.000000   0.000000  -0.000002
    24  H   -0.098403   0.000002   0.000000   0.000000   0.000000   0.000001
    25  H   -0.036366   0.000000   0.000000   0.000000  -0.000000  -0.000001
    26  C   -0.054229   0.000883   0.000214   0.000028  -0.000102   0.000012
    27  H    0.006661  -0.000113  -0.000003   0.000004  -0.000006  -0.000000
    28  H   -0.002693   0.000069  -0.000010  -0.000002   0.000001  -0.000000
    29  H   -0.001205  -0.000182   0.000103  -0.000003   0.000000   0.000000
              19         20         21         22         23         24
     1  O   -0.000001   0.000131  -0.000001  -0.106093   0.001382   0.004980
     2  O    0.007711   0.004041   0.000817   0.000000   0.000000  -0.000000
     3  N    0.000003   0.000115   0.000012  -0.000206   0.000004   0.000120
     4  H   -0.000001   0.000001  -0.000001   0.000121  -0.000013  -0.000055
     5  C    0.020992   0.045061   0.003355   0.004219  -0.000023  -0.000696
     6  C    0.000026  -0.001234   0.000224  -0.020814   0.009427  -0.028615
     7  C    0.000140   0.003295  -0.000244   0.000176  -0.000003  -0.000021
     8  C   -0.048773  -0.070857  -0.024315  -0.000076   0.000002   0.000004
     9  C   -0.001660  -0.008701  -0.009681   0.008607  -0.002224   0.003090
    10  H    0.000570  -0.006574  -0.000833  -0.000556  -0.000124   0.000051
    11  H    0.000083   0.002368   0.000782   0.002767   0.000179  -0.000196
    12  C   -0.000180   0.007936  -0.002993  -0.257568  -0.011169   0.066732
    13  C   -0.000015   0.000783  -0.000149   0.283345  -0.022223  -0.098403
    14  C   -0.000011   0.000045  -0.000244  -0.000013  -0.000001   0.000002
    15  H   -0.000004  -0.000015  -0.000005   0.000002   0.000000   0.000000
    16  H    0.000040  -0.000029   0.000016  -0.000000  -0.000000   0.000000
    17  H   -0.000028   0.000003  -0.000006   0.000000   0.000000   0.000000
    18  C    0.396909   0.379764   0.398821   0.000040  -0.000002   0.000001
    19  H    0.496550  -0.024791  -0.008556  -0.000000   0.000000   0.000000
    20  H   -0.024791   0.544918  -0.025318   0.000027  -0.000000  -0.000000
    21  H   -0.008556  -0.025318   0.496893  -0.000013   0.000000   0.000000
    22  C   -0.000000   0.000027  -0.000013   5.430505   0.400487   0.396723
    23  H    0.000000  -0.000000   0.000000   0.400487   0.495188  -0.027906
    24  H    0.000000  -0.000000   0.000000   0.396723  -0.027906   0.548491
    25  H   -0.000000  -0.000000   0.000000   0.383517  -0.007662  -0.022388
    26  C    0.000000  -0.000018   0.000004  -0.031961  -0.011581   0.016854
    27  H    0.000000   0.000000  -0.000000  -0.010831   0.000967  -0.001764
    28  H   -0.000000  -0.000000   0.000000   0.005117  -0.000031  -0.008047
    29  H    0.000000   0.000000  -0.000000   0.002064   0.000189   0.000632
              25         26         27         28         29
     1  O    0.006839   0.000841  -0.000051  -0.000249   0.000024
     2  O    0.000000   0.000009  -0.000000  -0.000000   0.000000
     3  N    0.000025  -0.026582  -0.002616   0.001647   0.001512
     4  H   -0.000003  -0.006378   0.000474   0.000776   0.001774
     5  C   -0.000149   0.000398   0.000410   0.000003  -0.000384
     6  C   -0.000846   0.185249  -0.033473  -0.046132  -0.050094
     7  C    0.000009   0.002435  -0.000818  -0.000711   0.003202
     8  C    0.000003   0.000745  -0.000013   0.000002  -0.000006
     9  C    0.000178   0.022503  -0.000404  -0.000308  -0.000528
    10  H   -0.000064   0.000110   0.000038   0.000015  -0.000014
    11  H   -0.000081  -0.000718  -0.000009  -0.000121   0.000095
    12  C    0.020543  -0.083290  -0.018155  -0.008411   0.023703
    13  C   -0.036366  -0.054229   0.006661  -0.002693  -0.001205
    14  C    0.000000   0.000883  -0.000113   0.000069  -0.000182
    15  H    0.000000   0.000214  -0.000003  -0.000010   0.000103
    16  H    0.000000   0.000028   0.000004  -0.000002  -0.000003
    17  H   -0.000000  -0.000102  -0.000006   0.000001   0.000000
    18  C   -0.000001   0.000012  -0.000000  -0.000000   0.000000
    19  H   -0.000000   0.000000   0.000000  -0.000000   0.000000
    20  H   -0.000000  -0.000018   0.000000  -0.000000   0.000000
    21  H    0.000000   0.000004  -0.000000   0.000000  -0.000000
    22  C    0.383517  -0.031961  -0.010831   0.005117   0.002064
    23  H   -0.007662  -0.011581   0.000967  -0.000031   0.000189
    24  H   -0.022388   0.016854  -0.001764  -0.008047   0.000632
    25  H    0.491348   0.001849   0.000116   0.000650  -0.000037
    26  C    0.001849   5.246139   0.427570   0.430602   0.389279
    27  H    0.000116   0.427570   0.480834  -0.027138  -0.017502
    28  H    0.000650   0.430602  -0.027138   0.507125  -0.025680
    29  H   -0.000037   0.389279  -0.017502  -0.025680   0.518984
 Mulliken charges:
               1
     1  O   -0.361652
     2  O   -0.361894
     3  N   -0.223571
     4  H    0.279938
     5  C   -0.071947
     6  C    0.270993
     7  C    0.163995
     8  C    0.158020
     9  C   -0.290835
    10  H    0.164434
    11  H    0.153430
    12  C   -0.147829
    13  C    0.157941
    14  C   -0.384659
    15  H    0.121930
    16  H    0.167358
    17  H    0.168536
    18  C   -0.456704
    19  H    0.160998
    20  H    0.149047
    21  H    0.171433
    22  C   -0.489585
    23  H    0.175139
    24  H    0.150411
    25  H    0.162518
    26  C   -0.510865
    27  H    0.195822
    28  H    0.173526
    29  H    0.154073
 Sum of Mulliken charges =  -0.00000
 Mulliken charges with hydrogens summed into heavy atoms:
               1
     1  O   -0.361652
     2  O   -0.361894
     3  N    0.056367
     5  C   -0.071947
     6  C    0.270993
     7  C    0.163995
     8  C    0.158020
     9  C    0.027029
    12  C   -0.147829
    13  C    0.157941
    14  C    0.073165
    18  C    0.024773
    22  C   -0.001518
    26  C    0.012557
 Electronic spatial extent (au):  <R**2>=           3198.0635
 Charge=             -0.0000 electrons
 Dipole moment (field-independent basis, Debye):
    X=              3.5658    Y=              7.2568    Z=              0.1017  Tot=              8.0862
 Quadrupole moment (field-independent basis, Debye-Ang):
   XX=            -96.6363   YY=            -78.3688   ZZ=            -84.9603
   XY=             12.4823   XZ=              4.1975   YZ=             -2.0990
 Traceless Quadrupole moment (field-independent basis, Debye-Ang):
   XX=             -9.9811   YY=              8.2863   ZZ=              1.6948
   XY=             12.4823   XZ=              4.1975   YZ=             -2.0990
 Octapole moment (field-independent basis, Debye-Ang**2):
  XXX=            102.1725  YYY=             62.3938  ZZZ=              1.5474  XYY=            -35.3647
  XXY=             30.0495  XXZ=             -5.4097  XZZ=              0.5465  YZZ=             -1.4287
  YYZ=              4.4891  XYZ=             -5.1970
 Hexadecapole moment (field-independent basis, Debye-Ang**3):
 XXXX=          -3027.3305 YYYY=          -1289.6995 ZZZZ=           -145.5307 XXXY=             36.6270
 XXXZ=             46.2137 YYYX=             89.0446 YYYZ=            -19.9284 ZZZX=             -3.8086
 ZZZY=              2.9899 XXYY=           -686.8578 XXZZ=           -479.7479 YYZZ=           -244.6654
 XXYZ=             -9.4895 YYXZ=              8.8588 ZZXY=             -0.3918
 N-N= 8.999442327145D+02 E-N=-3.275977272161D+03  KE= 6.307027018640D+02
 No NMR shielding tensors so no spin-rotation constants.
 Leave Link  601 at Fri Jan 23 22:40:40 2026, MaxMem=  2147483648 cpu:               1.8 elap:               0.1
 (Enter /data/home/wyx/g16/l9999.exe)
 1\1\GINC-CN012\SP\RCAM-B3LYP\TZVP\C11H15N1O2\WYX\23-Jan-2026\0\\#p CAM
 -B3LYP TZVP em=gd3bj scrf=(Solvent=TetraHydroFuran,NonEquilibrium=Read
 ) Geom=Check Guess=Read\\Title Card Required\\0,1\O,0,2.838809,-1.5711
 28,0.068736\O,0,-3.427353,-1.641177,-0.082262\N,0,-0.656723,1.516031,-
 0.234645\H,0,-0.967862,2.475653,-0.285417\C,0,-1.245636,-0.761057,-0.2
 07138\C,0,0.684977,1.325013,-0.046062\C,0,-1.630886,0.569721,-0.253025
 \C,0,-2.215241,-1.841272,-0.160243\C,0,0.201203,-1.09032,-0.234406\H,0
 ,0.423308,-1.907329,0.457948\H,0,0.464529,-1.536889,-1.208585\C,0,1.14
 8518,0.025151,0.026423\C,0,2.516735,-0.399667,0.285161\C,0,-3.018943,1
 .100641,-0.335118\H,0,-3.018592,2.178649,-0.487134\H,0,-3.570426,0.636
 659,-1.14645\H,0,-3.576381,0.883996,0.571943\C,0,-1.715791,-3.260995,-
 0.186936\H,0,-2.536482,-3.926766,-0.429515\H,0,-0.91224,-3.417795,-0.9
 00131\H,0,-1.332299,-3.547828,0.791364\C,0,3.557068,0.531983,0.857866\
 H,0,4.065357,1.075725,0.059011\H,0,3.145927,1.257569,1.55484\H,0,4.299
 723,-0.077657,1.367788\C,0,1.468398,2.593322,0.027373\H,0,1.662978,2.8
 95519,1.056446\H,0,2.423192,2.50674,-0.478761\H,0,0.924131,3.407506,-0
 .449071\\Version=ES64L-G16RevA.03\State=1-A\HF=-633.3225833\RMSD=7.229
 e-09\Dipole=0.3583565,3.1608271,0.0432579\Quadrupole=-12.3644506,10.49
 1999,1.8724516,2.9607202,1.8880001,-0.1975644\PG=C01 [X(C11H15N1O2)]\\
 @


 A COMPUTER IS LIKE A HORSE, IT WILL SENSE WEAKNESS.
     -- GREG WETTSTEIN
 Job cpu time:       0 days  0 hours 12 minutes 54.8 seconds.
 Elapsed time:       0 days  0 hours  0 minutes 49.3 seconds.
 File lengths (MBytes):  RWF=    345 Int=      0 D2E=      0 Chk=     67 Scr=      1
 Normal termination of Gaussian 16 at Fri Jan 23 22:40:41 2026.
