 Entering Gaussian System, Link 0=g16
 Input=DDL-S1-cLR-gs-16.gjf
 Output=DDL-S1-cLR-gs-16.log
 Initial command:
 /data/home/wyx/g16/l1.exe "/scr/tmp/wyx/13106/Gau-1989130.inp" -scrdir="/scr/tmp/wyx/13106/"
 Entering Link 1 = /data/home/wyx/g16/l1.exe PID=   1989131.
  
 Copyright (c) 1988,1990,1992,1993,1995,1998,2003,2009,2016,
            Gaussian, Inc.  All Rights Reserved.
  
 This is part of the Gaussian(R) 16 program.  It is based on
 the Gaussian(R) 09 system (copyright 2009, Gaussian, Inc.),
 the Gaussian(R) 03 system (copyright 2003, Gaussian, Inc.),
 the Gaussian(R) 98 system (copyright 1998, Gaussian, Inc.),
 the Gaussian(R) 94 system (copyright 1995, Gaussian, Inc.),
 the Gaussian 92(TM) system (copyright 1992, Gaussian, Inc.),
 the Gaussian 90(TM) system (copyright 1990, Gaussian, Inc.),
 the Gaussian 88(TM) system (copyright 1988, Gaussian, Inc.),
 the Gaussian 86(TM) system (copyright 1986, Carnegie Mellon
 University), and the Gaussian 82(TM) system (copyright 1983,
 Carnegie Mellon University). Gaussian is a federally registered
 trademark of Gaussian, Inc.
  
 This software contains proprietary and confidential information,
 including trade secrets, belonging to Gaussian, Inc.
  
 This software is provided under written license and may be
 used, copied, transmitted, or stored only in accord with that
 written license.
  
 The following legend is applicable only to US Government
 contracts under FAR:
  
                    RESTRICTED RIGHTS LEGEND
  
 Use, reproduction and disclosure by the US Government is
 subject to restrictions as set forth in subparagraphs (a)
 and (c) of the Commercial Computer Software - Restricted
 Rights clause in FAR 52.227-19.
  
 Gaussian, Inc.
 340 Quinnipiac St., Bldg. 40, Wallingford CT 06492
  
  
 ---------------------------------------------------------------
 Warning -- This program may not be used in any manner that
 competes with the business of Gaussian, Inc. or will provide
 assistance to any competitor of Gaussian, Inc.  The licensee
 of this program is prohibited from giving any competitor of
 Gaussian, Inc. access to this program.  By using this program,
 the user acknowledges that Gaussian, Inc. is engaged in the
 business of creating and licensing software in the field of
 computational chemistry and represents and warrants to the
 licensee that it is not a competitor of Gaussian, Inc. and that
 it will not use this program in any manner prohibited above.
 ---------------------------------------------------------------
  

 Cite this work as:
 Gaussian 16, Revision A.03,
 M. J. Frisch, G. W. Trucks, H. B. Schlegel, G. E. Scuseria, 
 M. A. Robb, J. R. Cheeseman, G. Scalmani, V. Barone, 
 G. A. Petersson, H. Nakatsuji, X. Li, M. Caricato, A. V. Marenich, 
 J. Bloino, B. G. Janesko, R. Gomperts, B. Mennucci, H. P. Hratchian, 
 J. V. Ortiz, A. F. Izmaylov, J. L. Sonnenberg, D. Williams-Young, 
 F. Ding, F. Lipparini, F. Egidi, J. Goings, B. Peng, A. Petrone, 
 T. Henderson, D. Ranasinghe, V. G. Zakrzewski, J. Gao, N. Rega, 
 G. Zheng, W. Liang, M. Hada, M. Ehara, K. Toyota, R. Fukuda, 
 J. Hasegawa, M. Ishida, T. Nakajima, Y. Honda, O. Kitao, H. Nakai, 
 T. Vreven, K. Throssell, J. A. Montgomery, Jr., J. E. Peralta, 
 F. Ogliaro, M. J. Bearpark, J. J. Heyd, E. N. Brothers, K. N. Kudin, 
 V. N. Staroverov, T. A. Keith, R. Kobayashi, J. Normand, 
 K. Raghavachari, A. P. Rendell, J. C. Burant, S. S. Iyengar, 
 J. Tomasi, M. Cossi, J. M. Millam, M. Klene, C. Adamo, R. Cammi, 
 J. W. Ochterski, R. L. Martin, K. Morokuma, O. Farkas, 
 J. B. Foresman, and D. J. Fox, Gaussian, Inc., Wallingford CT, 2016.
 
 ******************************************
 Gaussian 16:  ES64L-G16RevA.03 25-Dec-2016
                23-Jan-2026 
 ******************************************
 %nprocshared=16
 Will use up to   16 processors via shared memory.
 %mem=16GB
 %oldchk=DDL-S1-cLR-16.chk
 %chk=DDL-S1-cLR-gs-16.chk
 Copying data from "DDL-S1-cLR-16.chk" to current chk file "DDL-S1-cLR-gs-16.chk"
 IOpt=  2 FromEx=T IUOpen= 4 IOptOp= 5 NList=   0 IFRang= 0 IUIn= 4 IUOut= 2.
 ----------------------------------------------------------------------
 #p CAM-B3LYP TZVP em=gd3bj scrf=(Solvent=TetraHydroFuran,NonEquilibriu
 m=Read) Geom=Check Guess=Read
 ----------------------------------------------------------------------
 1/29=2,38=1,172=1/1;
 2/12=2,40=1/2;
 3/5=19,7=101,11=2,14=-4,25=1,30=1,70=6002201,72=20,74=-40,116=-2,124=41/1,2,3;
 4/5=1/1;
 5/5=2,38=6,53=20/2;
 6/7=2,8=2,9=2,10=2,28=1/1;
 99/5=1,9=1/99;
 Leave Link    1 at Fri Jan 23 22:56:38 2026, MaxMem=  2147483648 cpu:               0.8 elap:               0.1
 (Enter /data/home/wyx/g16/l101.exe)
 -------------------
 Title Card Required
 -------------------
 Structure from the checkpoint file:  "DDL-S1-cLR-gs-16.chk"
 Charge =  0 Multiplicity = 1
 Z-Matrix found in chk file.
 O,0,2.834186,-1.563035,0.17172
 O,0,-3.416699,-1.616145,0.114221
 N,0,-0.629619,1.508785,-0.397542
 H,0,-0.937968,2.465585,-0.452661
 C,0,-1.235438,-0.756829,-0.22748
 C,0,0.705234,1.293201,-0.120626
 C,0,-1.606629,0.540993,-0.302298
 C,0,-2.225859,-1.825376,-0.08503
 C,0,0.22442,-1.117347,-0.384186
 H,0,0.478874,-1.968317,0.243302
 H,0,0.431192,-1.450627,-1.409812
 C,0,1.152149,0.021771,-0.02374
 C,0,2.511446,-0.392312,0.335612
 C,0,-2.999209,1.08482,-0.288085
 H,0,-3.001636,2.130796,-0.595318
 H,0,-3.651328,0.514082,-0.942405
 H,0,-3.42642,1.014968,0.712035
 C,0,-1.732591,-3.247712,-0.191248
 H,0,-2.587914,-3.91708,-0.229149
 H,0,-1.108105,-3.392168,-1.073454
 H,0,-1.122147,-3.500918,0.678086
 C,0,3.525521,0.546356,0.944339
 H,0,4.041963,1.104865,0.161825
 H,0,3.085731,1.258676,1.637572
 H,0,4.264812,-0.058829,1.463584
 C,0,1.468584,2.573653,0.035965
 H,0,1.484843,2.891396,1.079762
 H,0,2.489817,2.495514,-0.315468
 H,0,0.982789,3.361234,-0.539521
 Recover connectivity data from disk.
 ITRead=  0  0  0  0  0  0  0  0  0  0  0  0  0  0  0  0  0  0  0  0
 ITRead=  0  0  0  0  0  0  0  0  0
 MicOpt= -1 -1 -1 -1 -1 -1 -1 -1 -1 -1 -1 -1 -1 -1 -1 -1 -1 -1 -1 -1
 MicOpt= -1 -1 -1 -1 -1 -1 -1 -1 -1
 NAtoms=     29 NQM=       29 NQMF=       0 NMMI=      0 NMMIF=      0
                NMic=       0 NMicF=      0.
                    Isotopes and Nuclear Properties:
 (Nuclear quadrupole moments (NQMom) in fm**2, nuclear magnetic moments (NMagM)
  in nuclear magnetons)

  Atom         1           2           3           4           5           6           7           8           9          10
 IAtWgt=          16          16          14           1          12          12          12          12          12           1
 AtmWgt=  15.9949146  15.9949146  14.0030740   1.0078250  12.0000000  12.0000000  12.0000000  12.0000000  12.0000000   1.0078250
 NucSpn=           0           0           2           1           0           0           0           0           0           1
 AtZEff=   5.6000000   5.6000000   4.5500000   1.0000000   3.6000000   3.6000000   3.6000000   3.6000000   3.6000000   1.0000000
 NQMom=    0.0000000   0.0000000   2.0440000   0.0000000   0.0000000   0.0000000   0.0000000   0.0000000   0.0000000   0.0000000
 NMagM=    0.0000000   0.0000000   0.4037610   2.7928460   0.0000000   0.0000000   0.0000000   0.0000000   0.0000000   2.7928460
 AtZNuc=   8.0000000   8.0000000   7.0000000   1.0000000   6.0000000   6.0000000   6.0000000   6.0000000   6.0000000   1.0000000

  Atom        11          12          13          14          15          16          17          18          19          20
 IAtWgt=           1          12          12          12           1           1           1          12           1           1
 AtmWgt=   1.0078250  12.0000000  12.0000000  12.0000000   1.0078250   1.0078250   1.0078250  12.0000000   1.0078250   1.0078250
 NucSpn=           1           0           0           0           1           1           1           0           1           1
 AtZEff=   1.0000000   3.6000000   3.6000000   3.6000000   1.0000000   1.0000000   1.0000000   3.6000000   1.0000000   1.0000000
 NQMom=    0.0000000   0.0000000   0.0000000   0.0000000   0.0000000   0.0000000   0.0000000   0.0000000   0.0000000   0.0000000
 NMagM=    2.7928460   0.0000000   0.0000000   0.0000000   2.7928460   2.7928460   2.7928460   0.0000000   2.7928460   2.7928460
 AtZNuc=   1.0000000   6.0000000   6.0000000   6.0000000   1.0000000   1.0000000   1.0000000   6.0000000   1.0000000   1.0000000

  Atom        21          22          23          24          25          26          27          28          29
 IAtWgt=           1          12           1           1           1          12           1           1           1
 AtmWgt=   1.0078250  12.0000000   1.0078250   1.0078250   1.0078250  12.0000000   1.0078250   1.0078250   1.0078250
 NucSpn=           1           0           1           1           1           0           1           1           1
 AtZEff=   1.0000000   3.6000000   1.0000000   1.0000000   1.0000000   3.6000000   1.0000000   1.0000000   1.0000000
 NQMom=    0.0000000   0.0000000   0.0000000   0.0000000   0.0000000   0.0000000   0.0000000   0.0000000   0.0000000
 NMagM=    2.7928460   0.0000000   2.7928460   2.7928460   2.7928460   0.0000000   2.7928460   2.7928460   2.7928460
 AtZNuc=   1.0000000   6.0000000   1.0000000   1.0000000   1.0000000   6.0000000   1.0000000   1.0000000   1.0000000
 Leave Link  101 at Fri Jan 23 22:56:42 2026, MaxMem=  2147483648 cpu:               0.8 elap:               0.1
 (Enter /data/home/wyx/g16/l202.exe)
                          Input orientation:                          
 ---------------------------------------------------------------------
 Center     Atomic      Atomic             Coordinates (Angstroms)
 Number     Number       Type             X           Y           Z
 ---------------------------------------------------------------------
      1          8           0        2.834186   -1.563035    0.171720
      2          8           0       -3.416699   -1.616145    0.114221
      3          7           0       -0.629619    1.508785   -0.397542
      4          1           0       -0.937968    2.465585   -0.452661
      5          6           0       -1.235438   -0.756829   -0.227480
      6          6           0        0.705234    1.293201   -0.120626
      7          6           0       -1.606629    0.540993   -0.302298
      8          6           0       -2.225859   -1.825376   -0.085030
      9          6           0        0.224420   -1.117347   -0.384186
     10          1           0        0.478874   -1.968317    0.243302
     11          1           0        0.431192   -1.450627   -1.409812
     12          6           0        1.152149    0.021771   -0.023740
     13          6           0        2.511446   -0.392312    0.335612
     14          6           0       -2.999209    1.084820   -0.288085
     15          1           0       -3.001636    2.130796   -0.595318
     16          1           0       -3.651328    0.514082   -0.942405
     17          1           0       -3.426420    1.014968    0.712035
     18          6           0       -1.732591   -3.247712   -0.191248
     19          1           0       -2.587914   -3.917080   -0.229149
     20          1           0       -1.108105   -3.392168   -1.073454
     21          1           0       -1.122147   -3.500918    0.678086
     22          6           0        3.525521    0.546356    0.944339
     23          1           0        4.041963    1.104865    0.161825
     24          1           0        3.085731    1.258676    1.637572
     25          1           0        4.264812   -0.058829    1.463584
     26          6           0        1.468584    2.573653    0.035965
     27          1           0        1.484843    2.891396    1.079762
     28          1           0        2.489817    2.495514   -0.315468
     29          1           0        0.982789    3.361234   -0.539521
 ---------------------------------------------------------------------
                    Distance matrix (angstroms):
                    1          2          3          4          5
     1  O    0.000000
     2  O    6.251375   0.000000
     3  N    4.664556   4.218401   0.000000
     4  H    5.554167   4.808948   1.006769   0.000000
     5  C    4.167873   2.369195   2.351371   3.243940   0.000000
     6  C    3.574351   5.050721   1.380214   2.045689   2.824933
     7  C    4.936848   2.846592   1.378492   2.042981   1.351933
     8  C    5.073342   1.225389   3.709754   4.495126   1.463905
     9  C    2.705281   3.708768   2.761545   3.767391   1.511858
    10  H    2.390998   3.913589   3.705358   4.706516   2.151326
    11  H    2.878934   4.142021   3.302746   4.257635   2.157990
    12  C    2.319281   4.855530   2.350667   3.244193   2.519583
    13  C    1.225404   6.057201   3.744058   4.548341   3.806453
    14  C    6.422698   2.762492   2.409706   2.486425   2.550732
    15  H    6.949069   3.836051   2.460178   2.095510   3.404870
    16  H    6.900549   2.389430   3.227543   3.377948   2.821853
    17  H    6.792145   2.698190   3.049117   3.106960   2.970245
    18  C    4.881120   2.364644   4.887061   5.774212   2.540270
    19  H    5.924643   2.469633   5.770900   6.596263   3.437496
    20  H    4.520823   3.145542   4.970427   5.893013   2.770721
    21  H    4.434452   3.022463   5.147493   6.075497   2.891869
    22  C    2.350407   7.318465   4.471253   5.055471   5.073281
    23  H    2.928569   7.939635   4.722258   5.198929   5.609672
    24  H    3.189679   7.270955   4.243592   4.692106   5.119881
    25  H    2.445044   7.953089   5.465954   6.092092   5.796521
    26  C    4.358381   6.436344   2.392557   2.458033   4.298052
    27  H    4.742069   6.728693   2.926600   2.898215   4.734803
    28  H    4.102166   7.209529   3.272805   3.430660   4.946009
    29  H    5.308668   6.675116   2.459997   2.121094   4.687893
                    6          7          8          9         10
     6  C    0.000000
     7  C    2.437936   0.000000
     8  C    4.279964   2.455678   0.000000
     9  C    2.472122   2.471748   2.568008   0.000000
    10  H    3.289557   3.308117   2.728336   1.087492   0.000000
    11  H    3.043960   3.057099   2.992558   1.098061   1.732935
    12  C    1.351168   2.821000   3.850538   1.512677   2.117796
    13  C    2.512272   4.270425   4.967159   2.504850   2.573648
    14  C    3.714076   1.495068   3.018036   3.905196   4.658442
    15  H    3.829854   2.135270   4.063683   4.582843   5.442422
    16  H    4.501331   2.142721   2.870560   4.242003   4.962537
    17  H    4.223897   2.136624   3.184998   4.367734   4.936701
    18  C    5.154403   3.792425   1.509184   2.899236   2.591575
    19  H    6.164708   4.565379   2.127694   3.971368   3.664161
    20  H    5.113586   4.038931   2.163607   2.724981   2.505933
    21  H    5.192383   4.187233   2.146618   2.936507   2.258577
    22  C    3.105792   5.281392   6.305798   3.928123   4.012118
    23  H    3.353954   5.695608   6.923355   4.450841   4.706027
    24  H    2.959598   5.128002   6.379006   4.233213   4.376434
    25  H    4.124112   6.160515   6.902732   4.567218   4.412319
    26  C    1.498927   3.701765   5.745869   3.917646   4.653172
    27  H    2.145448   4.122097   6.113427   4.449925   5.032738
    28  H    2.160615   4.538854   6.400062   4.264916   4.927667
    29  H    2.128208   3.836029   6.115792   4.544991   5.410255
                   11         12         13         14         15
    11  H    0.000000
    12  C    2.146842   0.000000
    13  C    2.914445   1.465704   0.000000
    14  C    4.410716   4.293451   5.739184   0.000000
    15  H    5.027355   4.693465   6.134067   1.090167   0.000000
    16  H    4.554725   4.915252   6.358825   1.085880   1.776607
    17  H    5.046044   4.742478   6.113950   1.089784   1.770504
    18  C    3.065350   4.363405   5.142251   4.514923   5.540947
    19  H    4.073372   5.435514   6.224662   5.019127   6.073059
    20  H    2.500431   4.226775   4.907724   4.923058   5.858089
    21  H    3.312986   4.251390   4.794134   5.048350   6.072087
    22  C    4.370908   2.616345   1.509965   6.661900   6.890920
    23  H    4.694491   3.091691   2.148074   7.055560   7.158078
    24  H    4.865537   2.833484   2.179602   6.384738   6.542356
    25  H    4.989003   3.450696   2.111356   7.559251   7.863511
    26  C    4.400146   2.572119   3.158211   4.720467   4.536244
    27  H    5.114814   3.092434   3.520002   5.024086   4.849010
    28  H    4.583400   2.827342   2.960391   5.667470   5.510662
    29  H    4.920942   3.383301   4.146294   4.593647   4.170460
                   16         17         18         19         20
    16  H    0.000000
    17  H    1.743170   0.000000
    18  C    4.289159   4.674978   0.000000
    19  H    4.612459   5.090581   1.086769   0.000000
    20  H    4.663040   5.290123   1.090476   1.782756   0.000000
    21  H    5.014277   5.069916   1.092015   1.773341   1.754969
    22  C    7.420782   6.971588   6.582724   7.659858   6.407336
    23  H    7.794554   7.489163   7.239825   8.326347   6.947836
    24  H    7.252494   6.582106   6.846046   7.903376   6.824095
    25  H    8.293508   7.802110   6.991158   8.044333   6.812925
    26  C    5.604689   5.181470   6.647363   7.658660   6.592508
    27  H    6.010078   5.270361   7.046701   8.040892   7.130420
    28  H    6.483270   6.184629   7.129432   8.179986   6.941497
    29  H    5.453772   5.149027   7.153513   8.112959   7.089807
                   21         22         23         24         25
    21  H    0.000000
    22  C    6.168641   0.000000
    23  H    6.938861   1.091317   0.000000
    24  H    6.424997   1.086916   1.765182   0.000000
    25  H    6.440832   1.087389   1.760233   1.776604   0.000000
    26  C    6.635105   3.027551   2.965714   2.628588   4.097188
    27  H    6.915159   3.111578   3.251640   2.353671   4.071778
    28  H    7.070405   2.541459   2.137959   2.387310   3.583337
    29  H    7.280278   4.073189   3.865441   3.685492   5.145963
                   26         27         28         29
    26  C    0.000000
    27  H    1.091209   0.000000
    28  H    1.082833   1.764472   0.000000
    29  H    1.089709   1.759228   1.752371   0.000000
 Stoichiometry    C11H15NO2
 Framework group  C1[X(C11H15NO2)]
 Deg. of freedom    81
 Full point group                 C1      NOp   1
 RotChk:  IX=0 Diff= 3.37D-16
 Largest Abelian subgroup         C1      NOp   1
 Largest concise Abelian subgroup C1      NOp   1
                         Standard orientation:                         
 ---------------------------------------------------------------------
 Center     Atomic      Atomic             Coordinates (Angstroms)
 Number     Number       Type             X           Y           Z
 ---------------------------------------------------------------------
      1          8           0        2.288218   -2.276543   -0.181993
      2          8           0       -3.587161   -0.244219    0.473193
      3          7           0        0.026432    1.802057   -0.268162
      4          1           0        0.055309    2.808391   -0.261635
      5          6           0       -1.288722   -0.139131   -0.091803
      6          6           0        1.230534    1.137598   -0.151447
      7          6           0       -1.205503    1.210234   -0.088377
      8          6           0       -2.562577   -0.824320    0.133650
      9          6           0       -0.059177   -0.953762   -0.423932
     10          1           0       -0.046476   -1.879248    0.146989
     11          1           0       -0.079003   -1.270431   -1.475153
     12          6           0        1.229284   -0.213528   -0.140885
     13          6           0        2.397378   -1.078165    0.049499
     14          6           0       -2.324210    2.184095    0.099555
     15          1           0       -2.003644    3.188751   -0.176791
     16          1           0       -3.191715    1.905829   -0.491325
     17          1           0       -2.649333    2.196388    1.139638
     18          6           0       -2.591352   -2.319843   -0.066891
     19          1           0       -3.621737   -2.662814   -0.025097
     20          1           0       -2.142288   -2.606933   -1.018236
     21          1           0       -2.019826   -2.816749    0.719836
     22          6           0        3.723436   -0.571149    0.563793
     23          1           0        4.318444   -0.167264   -0.257069
     24          1           0        3.620364    0.200936    1.321848
     25          1           0        4.262333   -1.419665    0.978554
     26          6           0        2.392762    2.078530   -0.048228
     27          1           0        2.617923    2.305253    0.995150
     28          1           0        3.287845    1.687921   -0.515965
     29          1           0        2.147210    3.017972   -0.542818
 ---------------------------------------------------------------------
 Rotational constants (GHZ):           1.0782823           0.4906712           0.3474065
 Leave Link  202 at Fri Jan 23 22:56:42 2026, MaxMem=  2147483648 cpu:               0.0 elap:               0.0
 (Enter /data/home/wyx/g16/l301.exe)
 Standard basis: TZVP (5D, 7F)
 Ernie: Thresh=  0.10000D-02 Tol=  0.10000D-05 Strict=F.
 There are   370 symmetry adapted cartesian basis functions of A   symmetry.
 There are   356 symmetry adapted basis functions of A   symmetry.
   356 basis functions,   610 primitive gaussians,   370 cartesian basis functions
    52 alpha electrons       52 beta electrons
       nuclear repulsion energy       900.7283919506 Hartrees.
 IExCor=20419 DFT=T Ex+Corr=CAM-B3LYP ExCW=0 ScaHFX=  1.000000
 ScaDFX=  1.000000  1.000000  1.000000  0.810000 ScalE2=  1.000000  1.000000
 IRadAn=      5 IRanWt=     -1 IRanGd=            0 ICorTp=0 IEmpDi=141
 HFx  wShort=  0.000000 wLong=  0.330000 cFull=  0.190000 cShort=  0.000000 cLong=  0.460000
 DFx  wShort=  0.000000 wLong=  0.330000 cFull=  0.190000 cShort=  0.000000 cLong=  0.460000
 NAtoms=   29 NActive=   29 NUniq=   29 SFac= 1.00D+00 NAtFMM=   60 NAOKFM=F Big=F
 Integral buffers will be    131072 words long.
 Raffenetti 2 integral format.
 Two-electron integral symmetry is turned on.
 R6Disp:  Grimme-D3(BJ) Dispersion energy=       -0.0262127042 Hartrees.
 Nuclear repulsion after empirical dispersion term =      900.7021792464 Hartrees.
 ------------------------------------------------------------------------------
 Polarizable Continuum Model (PCM)
 =================================
 Model                : PCM.
 Atomic radii         : UFF (Universal Force Field).
 Polarization charges : Total charges.
 Charge compensation  : None.
 Solution method      : On-the-fly selection.
 Cavity type          : Scaled VdW (van der Waals Surface) (Alpha=1.100).
 Cavity algorithm     : GePol (No added spheres)
                        Default sphere list used, NSphG=   29.
                        Lebedev-Laikov grids with approx.  5.0 points / Ang**2.
                        Smoothing algorithm: York/Karplus (Gamma=1.0000).
                        Polarization charges: spherical gaussians, with
                                              point-specific exponents (IZeta= 3).
                        Self-potential: point-specific (ISelfS= 7).
                        Self-field    : sphere-specific E.n sum rule (ISelfD= 2).
 Solvent              : TetraHydroFuran, Eps=   7.425700 Eps(inf)=   1.974025
 ------------------------------------------------------------------------------
 GePol: Number of generator spheres                  =      29
 GePol: Total number of spheres                      =      29
 GePol: Number of exposed spheres                    =      29 (100.00%)
 GePol: Number of points                             =    2087
 GePol: Average weight of points                     =       0.13
 GePol: Minimum weight of points                     =   0.28D-10
 GePol: Maximum weight of points                     =    0.20577
 GePol: Number of points with low weight             =     143
 GePol: Fraction of low-weight points (<1% of avg)   =       6.85%
 GePol: Cavity surface area                          =    268.837 Ang**2
 GePol: Cavity volume                                =    286.879 Ang**3
 Leave Link  301 at Fri Jan 23 22:56:42 2026, MaxMem=  2147483648 cpu:               0.6 elap:               0.0
 (Enter /data/home/wyx/g16/l302.exe)
 NPDir=0 NMtPBC=     1 NCelOv=     1 NCel=       1 NClECP=     1 NCelD=      1
         NCelK=      1 NCelE2=     1 NClLst=     1 CellRange=     0.0.
 One-electron integrals computed using PRISM.
 One-electron integral symmetry used in STVInt
 NBasis=   356 RedAO= T EigKep=  4.74D-05  NBF=   356
 NBsUse=   356 1.00D-06 EigRej= -1.00D+00 NBFU=   356
 Precomputing XC quadrature grid using
 IXCGrd= 4 IRadAn=           5 IRanWt=          -1 IRanGd=           0 AccXCQ= 0.00D+00.
 Generated NRdTot=       0 NPtTot=           0 NUsed=           0 NTot=          32
 NSgBfM=   366   366   366   366   366 MxSgAt=    29 MxSgA2=    29.
 Leave Link  302 at Fri Jan 23 22:56:43 2026, MaxMem=  2147483648 cpu:               3.1 elap:               0.2
 (Enter /data/home/wyx/g16/l303.exe)
 DipDrv:  MaxL=1.
 Leave Link  303 at Fri Jan 23 22:56:43 2026, MaxMem=  2147483648 cpu:               0.6 elap:               0.0
 (Enter /data/home/wyx/g16/l401.exe)
 Initial guess from the checkpoint file:  "DDL-S1-cLR-gs-16.chk"
 B after Tr=    -0.000000    0.000000   -0.000000
         Rot=    1.000000    0.000000   -0.000000   -0.000000 Ang=   0.00 deg.
 Guess basis will be translated and rotated to current coordinates.
 JPrj=2 DoOrth=T DoCkMO=T.
 Leave Link  401 at Fri Jan 23 22:56:43 2026, MaxMem=  2147483648 cpu:               2.2 elap:               0.2
 (Enter /data/home/wyx/g16/l502.exe)
 Integral symmetry usage will be decided dynamically.
 Closed shell SCF:
 Using DIIS extrapolation, IDIIS=  1040.
 NGot=  2147483648 LenX=  2147200095 LenY=  2147062754
 Requested convergence on RMS density matrix=1.00D-08 within 128 cycles.
 Requested convergence on MAX density matrix=1.00D-06.
 Requested convergence on             energy=1.00D-06.
 No special actions if energy rises.
 Fock matrices will be formed incrementally for  20 cycles.

 Cycle   1  Pass 1  IDiag  1:
 FoFJK:  IHMeth= 1 ICntrl=       0 DoSepK=T KAlg= 0 I1Cent=           0 FoldK=F
 IRaf=         1 NMat=       1 IRICut=       1 DoRegI=T DoRafI=F ISym2E= 0 IDoP0=0 IntGTp=1.
 FoFCou: FMM=F IPFlag=           0 FMFlag=      100000 FMFlg1=           0
         NFxFlg=           0 DoJE=T BraDBF=F KetDBF=F FulRan=T
         wScrn=  0.000000 ICntrl=       500 IOpCl=  0 I1Cent=           0 NGrid=           0
         NMat0=    1 NMatS0=      1 NMatT0=    0 NMatD0=    1 NMtDS0=    0 NMtDT0=    0
 Symmetry not used in FoFCou.
 Inv3:  Mode=1 IEnd=    13066707.
 Iteration    1 A*A^-1 deviation from unit magnitude is 3.33D-15 for    192.
 Iteration    1 A*A^-1 deviation from orthogonality  is 1.55D-15 for    122     73.
 Iteration    1 A^-1*A deviation from unit magnitude is 3.33D-15 for   1105.
 Iteration    1 A^-1*A deviation from orthogonality  is 1.69D-15 for   1722   1502.
 NEqPCM:  Using non-equilibrium solvation (IEInf=1, Eps=   7.4257, EpsInf=   1.9740)
 Inv3:  Mode=1 IEnd=    13066707.
 Iteration    1 A*A^-1 deviation from unit magnitude is 4.22D-15 for    387.
 Iteration    1 A*A^-1 deviation from orthogonality  is 2.11D-15 for   1348     14.
 Iteration    1 A^-1*A deviation from unit magnitude is 3.77D-15 for    387.
 Iteration    1 A^-1*A deviation from orthogonality  is 2.07D-15 for   1523   1117.
 E= -633.328544319843    
 DIIS: error= 2.51D-04 at cycle   1 NSaved=   1.
 NSaved= 1 IEnMin= 1 EnMin= -633.328544319843     IErMin= 1 ErrMin= 2.51D-04
 ErrMax= 2.51D-04  0.00D+00 EMaxC= 1.00D-01 BMatC= 1.29D-05 BMatP= 1.29D-05
 IDIUse=3 WtCom= 9.97D-01 WtEn= 2.51D-03
 Coeff-Com:  0.100D+01
 Coeff-En:   0.100D+01
 Coeff:      0.100D+01
 Gap=     0.240 Goal=   None    Shift=    0.000
 RMSDP=1.49D-04 MaxDP=7.37D-03              OVMax= 3.62D-03

 Cycle   2  Pass 1  IDiag  1:
 RMSU=  1.48D-04    CP:  9.99D-01
 E= -633.328566655483     Delta-E=       -0.000022335641 Rises=F Damp=F
 DIIS: error= 1.44D-04 at cycle   2 NSaved=   2.
 NSaved= 2 IEnMin= 2 EnMin= -633.328566655483     IErMin= 2 ErrMin= 1.44D-04
 ErrMax= 1.44D-04  0.00D+00 EMaxC= 1.00D-01 BMatC= 9.70D-06 BMatP= 1.29D-05
 IDIUse=3 WtCom= 9.99D-01 WtEn= 1.44D-03
 Coeff-Com:  0.451D+00 0.549D+00
 Coeff-En:   0.000D+00 0.100D+01
 Coeff:      0.451D+00 0.549D+00
 Gap=     0.240 Goal=   None    Shift=    0.000
 RMSDP=2.97D-05 MaxDP=1.79D-03 DE=-2.23D-05 OVMax= 1.11D-03

 Cycle   3  Pass 1  IDiag  1:
 RMSU=  2.46D-05    CP:  1.00D+00  9.14D-01
 E= -633.328575037792     Delta-E=       -0.000008382309 Rises=F Damp=F
 DIIS: error= 8.40D-05 at cycle   3 NSaved=   3.
 NSaved= 3 IEnMin= 3 EnMin= -633.328575037792     IErMin= 3 ErrMin= 8.40D-05
 ErrMax= 8.40D-05  0.00D+00 EMaxC= 1.00D-01 BMatC= 1.56D-06 BMatP= 9.70D-06
 IDIUse=1 WtCom= 1.00D+00 WtEn= 0.00D+00
 Coeff-Com:  0.775D-01 0.270D+00 0.653D+00
 Coeff:      0.775D-01 0.270D+00 0.653D+00
 Gap=     0.240 Goal=   None    Shift=    0.000
 RMSDP=9.40D-06 MaxDP=3.84D-04 DE=-8.38D-06 OVMax= 5.43D-04

 Cycle   4  Pass 1  IDiag  1:
 RMSU=  8.98D-06    CP:  9.99D-01  9.12D-01  9.23D-01
 E= -633.328576318470     Delta-E=       -0.000001280677 Rises=F Damp=F
 DIIS: error= 1.71D-05 at cycle   4 NSaved=   4.
 NSaved= 4 IEnMin= 4 EnMin= -633.328576318470     IErMin= 4 ErrMin= 1.71D-05
 ErrMax= 1.71D-05  0.00D+00 EMaxC= 1.00D-01 BMatC= 1.44D-07 BMatP= 1.56D-06
 IDIUse=1 WtCom= 1.00D+00 WtEn= 0.00D+00
 Coeff-Com: -0.880D-02 0.435D-01 0.251D+00 0.715D+00
 Coeff:     -0.880D-02 0.435D-01 0.251D+00 0.715D+00
 Gap=     0.240 Goal=   None    Shift=    0.000
 RMSDP=5.22D-06 MaxDP=3.52D-04 DE=-1.28D-06 OVMax= 1.61D-04

 Cycle   5  Pass 1  IDiag  1:
 RMSU=  3.07D-06    CP:  1.00D+00  9.19D-01  1.06D+00  1.18D+00
 E= -633.328576442713     Delta-E=       -0.000000124244 Rises=F Damp=F
 DIIS: error= 6.91D-06 at cycle   5 NSaved=   5.
 NSaved= 5 IEnMin= 5 EnMin= -633.328576442713     IErMin= 5 ErrMin= 6.91D-06
 ErrMax= 6.91D-06  0.00D+00 EMaxC= 1.00D-01 BMatC= 2.71D-08 BMatP= 1.44D-07
 IDIUse=1 WtCom= 1.00D+00 WtEn= 0.00D+00
 Coeff-Com: -0.122D-01-0.188D-01 0.268D-01 0.329D+00 0.675D+00
 Coeff:     -0.122D-01-0.188D-01 0.268D-01 0.329D+00 0.675D+00
 Gap=     0.240 Goal=   None    Shift=    0.000
 RMSDP=1.43D-06 MaxDP=7.62D-05 DE=-1.24D-07 OVMax= 7.23D-05

 Cycle   6  Pass 1  IDiag  1:
 RMSU=  9.11D-07    CP:  1.00D+00  9.18D-01  1.09D+00  1.28D+00  1.05D+00
 E= -633.328576471620     Delta-E=       -0.000000028907 Rises=F Damp=F
 DIIS: error= 3.31D-06 at cycle   6 NSaved=   6.
 NSaved= 6 IEnMin= 6 EnMin= -633.328576471620     IErMin= 6 ErrMin= 3.31D-06
 ErrMax= 3.31D-06  0.00D+00 EMaxC= 1.00D-01 BMatC= 2.97D-09 BMatP= 2.71D-08
 IDIUse=1 WtCom= 1.00D+00 WtEn= 0.00D+00
 Coeff-Com: -0.293D-02-0.127D-01-0.116D-01 0.339D-01 0.252D+00 0.741D+00
 Coeff:     -0.293D-02-0.127D-01-0.116D-01 0.339D-01 0.252D+00 0.741D+00
 Gap=     0.240 Goal=   None    Shift=    0.000
 RMSDP=8.92D-07 MaxDP=6.17D-05 DE=-2.89D-08 OVMax= 4.53D-05

 Cycle   7  Pass 1  IDiag  1:
 RMSU=  3.59D-07    CP:  1.00D+00  9.16D-01  1.10D+00  1.33D+00  1.20D+00
                    CP:  1.15D+00
 E= -633.328576475301     Delta-E=       -0.000000003680 Rises=F Damp=F
 DIIS: error= 1.22D-06 at cycle   7 NSaved=   7.
 NSaved= 7 IEnMin= 7 EnMin= -633.328576475301     IErMin= 7 ErrMin= 1.22D-06
 ErrMax= 1.22D-06  0.00D+00 EMaxC= 1.00D-01 BMatC= 8.89D-10 BMatP= 2.97D-09
 IDIUse=1 WtCom= 1.00D+00 WtEn= 0.00D+00
 Coeff-Com:  0.755D-03-0.407D-02-0.742D-02-0.439D-01 0.251D-04 0.383D+00
 Coeff-Com:  0.671D+00
 Coeff:      0.755D-03-0.407D-02-0.742D-02-0.439D-01 0.251D-04 0.383D+00
 Coeff:      0.671D+00
 Gap=     0.240 Goal=   None    Shift=    0.000
 RMSDP=3.16D-07 MaxDP=2.00D-05 DE=-3.68D-09 OVMax= 2.08D-05

 Cycle   8  Pass 1  IDiag  1:
 RMSU=  1.41D-07    CP:  1.00D+00  9.16D-01  1.11D+00  1.35D+00  1.24D+00
                    CP:  1.28D+00  1.01D+00
 E= -633.328576476459     Delta-E=       -0.000000001159 Rises=F Damp=F
 DIIS: error= 4.18D-07 at cycle   8 NSaved=   8.
 NSaved= 8 IEnMin= 8 EnMin= -633.328576476459     IErMin= 8 ErrMin= 4.18D-07
 ErrMax= 4.18D-07  0.00D+00 EMaxC= 1.00D-01 BMatC= 6.62D-11 BMatP= 8.89D-10
 IDIUse=1 WtCom= 1.00D+00 WtEn= 0.00D+00
 Coeff-Com:  0.638D-03-0.217D-03 0.888D-03-0.170D-01-0.377D-01-0.147D-02
 Coeff-Com:  0.167D+00 0.888D+00
 Coeff:      0.638D-03-0.217D-03 0.888D-03-0.170D-01-0.377D-01-0.147D-02
 Coeff:      0.167D+00 0.888D+00
 Gap=     0.240 Goal=   None    Shift=    0.000
 RMSDP=1.51D-07 MaxDP=1.01D-05 DE=-1.16D-09 OVMax= 9.94D-06

 Cycle   9  Pass 1  IDiag  1:
 RMSU=  5.80D-08    CP:  1.00D+00  9.15D-01  1.11D+00  1.35D+00  1.26D+00
                    CP:  1.35D+00  1.15D+00  1.08D+00
 E= -633.328576476593     Delta-E=       -0.000000000134 Rises=F Damp=F
 DIIS: error= 1.55D-07 at cycle   9 NSaved=   9.
 NSaved= 9 IEnMin= 9 EnMin= -633.328576476593     IErMin= 9 ErrMin= 1.55D-07
 ErrMax= 1.55D-07  0.00D+00 EMaxC= 1.00D-01 BMatC= 6.72D-12 BMatP= 6.62D-11
 IDIUse=1 WtCom= 1.00D+00 WtEn= 0.00D+00
 Coeff-Com:  0.105D-03 0.217D-03 0.131D-02 0.699D-03-0.112D-01-0.495D-01
 Coeff-Com: -0.352D-01 0.259D+00 0.835D+00
 Coeff:      0.105D-03 0.217D-03 0.131D-02 0.699D-03-0.112D-01-0.495D-01
 Coeff:     -0.352D-01 0.259D+00 0.835D+00
 Gap=     0.240 Goal=   None    Shift=    0.000
 RMSDP=3.95D-08 MaxDP=1.56D-06 DE=-1.34D-10 OVMax= 3.58D-06

 Cycle  10  Pass 1  IDiag  1:
 RMSU=  1.75D-08    CP:  1.00D+00  9.15D-01  1.11D+00  1.35D+00  1.26D+00
                    CP:  1.37D+00  1.20D+00  1.18D+00  1.20D+00
 E= -633.328576476603     Delta-E=       -0.000000000010 Rises=F Damp=F
 DIIS: error= 6.12D-08 at cycle  10 NSaved=  10.
 NSaved=10 IEnMin=10 EnMin= -633.328576476603     IErMin=10 ErrMin= 6.12D-08
 ErrMax= 6.12D-08  0.00D+00 EMaxC= 1.00D-01 BMatC= 9.37D-13 BMatP= 6.72D-12
 IDIUse=1 WtCom= 1.00D+00 WtEn= 0.00D+00
 Coeff-Com: -0.259D-04 0.110D-03 0.324D-03 0.218D-02 0.772D-04-0.176D-01
 Coeff-Com: -0.294D-01-0.205D-02 0.283D+00 0.763D+00
 Coeff:     -0.259D-04 0.110D-03 0.324D-03 0.218D-02 0.772D-04-0.176D-01
 Coeff:     -0.294D-01-0.205D-02 0.283D+00 0.763D+00
 Gap=     0.240 Goal=   None    Shift=    0.000
 RMSDP=1.54D-08 MaxDP=7.48D-07 DE=-1.01D-11 OVMax= 1.26D-06

 Cycle  11  Pass 1  IDiag  1:
 RMSU=  7.84D-09    CP:  1.00D+00  9.15D-01  1.11D+00  1.35D+00  1.26D+00
                    CP:  1.38D+00  1.22D+00  1.20D+00  1.32D+00  1.29D+00
 E= -633.328576476606     Delta-E=       -0.000000000002 Rises=F Damp=F
 DIIS: error= 3.03D-08 at cycle  11 NSaved=  11.
 NSaved=11 IEnMin=11 EnMin= -633.328576476606     IErMin=11 ErrMin= 3.03D-08
 ErrMax= 3.03D-08  0.00D+00 EMaxC= 1.00D-01 BMatC= 3.45D-13 BMatP= 9.37D-13
 IDIUse=1 WtCom= 1.00D+00 WtEn= 0.00D+00
 Coeff-Com: -0.316D-04 0.297D-04-0.118D-03 0.975D-03 0.226D-02 0.115D-02
 Coeff-Com: -0.710D-02-0.509D-01-0.257D-01 0.397D+00 0.682D+00
 Coeff:     -0.316D-04 0.297D-04-0.118D-03 0.975D-03 0.226D-02 0.115D-02
 Coeff:     -0.710D-02-0.509D-01-0.257D-01 0.397D+00 0.682D+00
 Gap=     0.240 Goal=   None    Shift=    0.000
 RMSDP=7.12D-09 MaxDP=3.54D-07 DE=-2.39D-12 OVMax= 5.98D-07

 Error on total polarization charges =  0.00922
 SCF Done:  E(RCAM-B3LYP) =  -633.328576477     A.U. after   11 cycles
            NFock= 11  Conv=0.71D-08     -V/T= 2.0042
 KE= 6.307024412756D+02 PE=-3.277444301405D+03 EE= 1.112711104406D+03
 Leave Link  502 at Fri Jan 23 22:57:28 2026, MaxMem=  2147483648 cpu:             700.1 elap:              44.4
 (Enter /data/home/wyx/g16/l601.exe)
 Copying SCF densities to generalized density rwf, IOpCl= 0 IROHF=0.

 **********************************************************************

            Population analysis using the SCF density.

 **********************************************************************

 Orbital symmetries:
       Occupied  (A) (A) (A) (A) (A) (A) (A) (A) (A) (A) (A) (A)
                 (A) (A) (A) (A) (A) (A) (A) (A) (A) (A) (A) (A)
                 (A) (A) (A) (A) (A) (A) (A) (A) (A) (A) (A) (A)
                 (A) (A) (A) (A) (A) (A) (A) (A) (A) (A) (A) (A)
                 (A) (A) (A) (A)
       Virtual   (A) (A) (A) (A) (A) (A) (A) (A) (A) (A) (A) (A)
                 (A) (A) (A) (A) (A) (A) (A) (A) (A) (A) (A) (A)
                 (A) (A) (A) (A) (A) (A) (A) (A) (A) (A) (A) (A)
                 (A) (A) (A) (A) (A) (A) (A) (A) (A) (A) (A) (A)
                 (A) (A) (A) (A) (A) (A) (A) (A) (A) (A) (A) (A)
                 (A) (A) (A) (A) (A) (A) (A) (A) (A) (A) (A) (A)
                 (A) (A) (A) (A) (A) (A) (A) (A) (A) (A) (A) (A)
                 (A) (A) (A) (A) (A) (A) (A) (A) (A) (A) (A) (A)
                 (A) (A) (A) (A) (A) (A) (A) (A) (A) (A) (A) (A)
                 (A) (A) (A) (A) (A) (A) (A) (A) (A) (A) (A) (A)
                 (A) (A) (A) (A) (A) (A) (A) (A) (A) (A) (A) (A)
                 (A) (A) (A) (A) (A) (A) (A) (A) (A) (A) (A) (A)
                 (A) (A) (A) (A) (A) (A) (A) (A) (A) (A) (A) (A)
                 (A) (A) (A) (A) (A) (A) (A) (A) (A) (A) (A) (A)
                 (A) (A) (A) (A) (A) (A) (A) (A) (A) (A) (A) (A)
                 (A) (A) (A) (A) (A) (A) (A) (A) (A) (A) (A) (A)
                 (A) (A) (A) (A) (A) (A) (A) (A) (A) (A) (A) (A)
                 (A) (A) (A) (A) (A) (A) (A) (A) (A) (A) (A) (A)
                 (A) (A) (A) (A) (A) (A) (A) (A) (A) (A) (A) (A)
                 (A) (A) (A) (A) (A) (A) (A) (A) (A) (A) (A) (A)
                 (A) (A) (A) (A) (A) (A) (A) (A) (A) (A) (A) (A)
                 (A) (A) (A) (A) (A) (A) (A) (A) (A) (A) (A) (A)
                 (A) (A) (A) (A) (A) (A) (A) (A) (A) (A) (A) (A)
                 (A) (A) (A) (A) (A) (A) (A) (A) (A) (A) (A) (A)
                 (A) (A) (A) (A) (A) (A) (A) (A) (A) (A) (A) (A)
                 (A) (A) (A) (A)
 The electronic state is 1-A.
 Alpha  occ. eigenvalues --  -19.17896 -19.17345 -14.43880 -10.33476 -10.33004
 Alpha  occ. eigenvalues --  -10.31851 -10.31242 -10.25894 -10.24951 -10.24711
 Alpha  occ. eigenvalues --  -10.24654 -10.24389 -10.24351 -10.23720  -1.12124
 Alpha  occ. eigenvalues --   -1.11553  -1.07204  -0.91085  -0.90044  -0.83756
 Alpha  occ. eigenvalues --   -0.82441  -0.81559  -0.78386  -0.73852  -0.70919
 Alpha  occ. eigenvalues --   -0.68452  -0.61432  -0.58086  -0.56701  -0.55053
 Alpha  occ. eigenvalues --   -0.54374  -0.53924  -0.52522  -0.51893  -0.50702
 Alpha  occ. eigenvalues --   -0.50022  -0.49446  -0.49062  -0.48558  -0.48033
 Alpha  occ. eigenvalues --   -0.46807  -0.45299  -0.45052  -0.43227  -0.42965
 Alpha  occ. eigenvalues --   -0.42399  -0.42041  -0.41902  -0.32728  -0.32209
 Alpha  occ. eigenvalues --   -0.31171  -0.26104
 Alpha virt. eigenvalues --   -0.02066   0.02543   0.06407   0.08239   0.08592
 Alpha virt. eigenvalues --    0.10091   0.10812   0.12020   0.12699   0.13516
 Alpha virt. eigenvalues --    0.14374   0.14889   0.15690   0.16069   0.16931
 Alpha virt. eigenvalues --    0.17486   0.17850   0.17920   0.18143   0.19211
 Alpha virt. eigenvalues --    0.19949   0.22068   0.22723   0.23527   0.23626
 Alpha virt. eigenvalues --    0.23876   0.24857   0.25578   0.25939   0.26491
 Alpha virt. eigenvalues --    0.26861   0.27260   0.28811   0.29130   0.30202
 Alpha virt. eigenvalues --    0.31600   0.32046   0.32839   0.33650   0.34360
 Alpha virt. eigenvalues --    0.35525   0.35902   0.36881   0.38068   0.39060
 Alpha virt. eigenvalues --    0.40268   0.41028   0.41851   0.42409   0.42807
 Alpha virt. eigenvalues --    0.44017   0.44171   0.45428   0.45914   0.46210
 Alpha virt. eigenvalues --    0.47194   0.47717   0.47953   0.48418   0.48960
 Alpha virt. eigenvalues --    0.49477   0.50302   0.50677   0.51337   0.51693
 Alpha virt. eigenvalues --    0.52949   0.53156   0.53356   0.54211   0.54507
 Alpha virt. eigenvalues --    0.54565   0.55898   0.56255   0.56711   0.58100
 Alpha virt. eigenvalues --    0.58569   0.59127   0.60571   0.61209   0.62384
 Alpha virt. eigenvalues --    0.63267   0.65545   0.65947   0.66628   0.67953
 Alpha virt. eigenvalues --    0.68649   0.70045   0.71347   0.72424   0.73114
 Alpha virt. eigenvalues --    0.73534   0.73949   0.75079   0.76301   0.77605
 Alpha virt. eigenvalues --    0.78283   0.79872   0.81797   0.83668   0.84345
 Alpha virt. eigenvalues --    0.89230   0.93064   0.98746   0.99975   1.25026
 Alpha virt. eigenvalues --    1.25893   1.27258   1.27564   1.29360   1.31647
 Alpha virt. eigenvalues --    1.32388   1.33042   1.34091   1.35412   1.35921
 Alpha virt. eigenvalues --    1.36593   1.37088   1.38036   1.39327   1.39911
 Alpha virt. eigenvalues --    1.40030   1.40244   1.41210   1.41714   1.41856
 Alpha virt. eigenvalues --    1.43218   1.44147   1.44899   1.45334   1.46901
 Alpha virt. eigenvalues --    1.48241   1.48956   1.49671   1.50706   1.51084
 Alpha virt. eigenvalues --    1.52387   1.52590   1.54360   1.54509   1.57634
 Alpha virt. eigenvalues --    1.58353   1.60510   1.60742   1.61192   1.62250
 Alpha virt. eigenvalues --    1.62513   1.63373   1.64305   1.65315   1.65696
 Alpha virt. eigenvalues --    1.67075   1.67506   1.67727   1.68102   1.68659
 Alpha virt. eigenvalues --    1.68869   1.69942   1.70690   1.72260   1.72507
 Alpha virt. eigenvalues --    1.73200   1.75210   1.76072   1.76892   1.78891
 Alpha virt. eigenvalues --    1.79772   1.83362   1.84437   1.85981   1.86565
 Alpha virt. eigenvalues --    1.87007   1.87240   1.88565   1.88992   1.90712
 Alpha virt. eigenvalues --    1.91682   1.94442   1.95340   1.97983   1.99587
 Alpha virt. eigenvalues --    2.00791   2.03713   2.04313   2.06212   2.09429
 Alpha virt. eigenvalues --    2.11389   2.12956   2.14344   2.16389   2.19410
 Alpha virt. eigenvalues --    2.20504   2.21094   2.21847   2.22522   2.25945
 Alpha virt. eigenvalues --    2.26829   2.27125   2.28784   2.30308   2.31052
 Alpha virt. eigenvalues --    2.32707   2.34788   2.36050   2.36110   2.37839
 Alpha virt. eigenvalues --    2.39526   2.40163   2.41564   2.44009   2.44756
 Alpha virt. eigenvalues --    2.45880   2.47625   2.50052   2.50445   2.51663
 Alpha virt. eigenvalues --    2.53072   2.53470   2.54963   2.56734   2.58620
 Alpha virt. eigenvalues --    2.59039   2.59913   2.60613   2.61336   2.62567
 Alpha virt. eigenvalues --    2.64415   2.65509   2.66945   2.67720   2.69183
 Alpha virt. eigenvalues --    2.70409   2.72009   2.72769   2.73509   2.74675
 Alpha virt. eigenvalues --    2.75989   2.76639   2.77373   2.78104   2.79391
 Alpha virt. eigenvalues --    2.80711   2.81266   2.82811   2.83561   2.84553
 Alpha virt. eigenvalues --    2.85604   2.85885   2.87583   2.90505   2.91661
 Alpha virt. eigenvalues --    2.97793   3.00157   3.01338   3.03427   3.10088
 Alpha virt. eigenvalues --    3.11955   3.15153   3.16262   3.16890   3.20056
 Alpha virt. eigenvalues --    3.20618   3.22194   3.25255   3.26618   3.27054
 Alpha virt. eigenvalues --    3.27718   3.29417   3.33369   3.34895   3.36460
 Alpha virt. eigenvalues --    3.36909   3.38625   3.39705   3.40143   3.41426
 Alpha virt. eigenvalues --    3.42602   3.44638   3.45356   3.46429   3.47964
 Alpha virt. eigenvalues --    3.48177   3.49153   3.55241   3.58126   3.59568
 Alpha virt. eigenvalues --    3.60397   3.89718   3.99252   4.34568   4.36103
 Alpha virt. eigenvalues --   21.62930  21.79015  22.08271  22.10981  22.11575
 Alpha virt. eigenvalues --   22.14227  22.15124  22.17811  22.21236  22.25170
 Alpha virt. eigenvalues --   22.30960  31.93550  43.62786  43.65174
          Condensed to atoms (all electrons):
               1          2          3          4          5          6
     1  O    7.938639   0.000000  -0.000248   0.000018   0.015128   0.018509
     2  O    0.000000   7.968819   0.000439   0.000035  -0.198932   0.000828
     3  N   -0.000248   0.000439   6.400823   0.375294  -0.110378   0.327245
     4  H    0.000018   0.000035   0.375294   0.411043   0.017250  -0.047809
     5  C    0.015128  -0.198932  -0.110378   0.017250   6.893950  -0.054012
     6  C    0.018509   0.000828   0.327245  -0.047809  -0.054012   5.643166
     7  C   -0.000477  -0.029607   0.370605  -0.040811   0.349954  -0.080396
     8  C   -0.000096   0.711455   0.004991  -0.000615  -0.201056   0.024158
     9  C   -0.032964   0.016922   0.015600  -0.000165  -0.407729  -0.150149
    10  H    0.017841  -0.000021  -0.001322   0.000018  -0.103774   0.025063
    11  H    0.003021   0.000073   0.003804   0.000003  -0.030315  -0.014144
    12  C   -0.215326  -0.002088  -0.090591   0.014856   0.126417  -0.189898
    13  C    0.710937  -0.000029  -0.000018   0.000343   0.072075   0.193950
    14  C   -0.000004  -0.012132  -0.036120  -0.008582  -0.069328   0.008911
    15  H   -0.000000   0.004311   0.002519   0.001260   0.017491   0.006492
    16  H   -0.000000   0.001548   0.001774   0.000751  -0.010328  -0.000767
    17  H   -0.000000   0.001355  -0.002937   0.000906  -0.003122  -0.002054
    18  C   -0.000145  -0.105786  -0.000620   0.000019  -0.275977   0.000697
    19  H   -0.000004   0.009487   0.000002  -0.000001   0.024611   0.000030
    20  H    0.000070   0.003264   0.000117   0.000000   0.039440  -0.001013
    21  H    0.000028   0.001229   0.000012  -0.000000   0.005575   0.000244
    22  C   -0.107274   0.000000  -0.000084   0.000117   0.003998  -0.003251
    23  H    0.001152  -0.000000  -0.000045  -0.000017  -0.000098   0.011195
    24  H    0.004646  -0.000000  -0.000108  -0.000051  -0.000530  -0.035144
    25  H    0.008084   0.000000   0.000033  -0.000002  -0.000135  -0.001557
    26  C    0.000877   0.000002  -0.031771  -0.005446  -0.000060   0.171477
    27  H   -0.000043  -0.000000  -0.002240   0.000406   0.000408  -0.036700
    28  H   -0.000239   0.000000   0.003497   0.000920   0.000037  -0.045826
    29  H    0.000027  -0.000000  -0.000276   0.000709  -0.000582  -0.049125
               7          8          9         10         11         12
     1  O   -0.000477  -0.000096  -0.032964   0.017841   0.003021  -0.215326
     2  O   -0.029607   0.711455   0.016922  -0.000021   0.000073  -0.002088
     3  N    0.370605   0.004991   0.015600  -0.001322   0.003804  -0.090591
     4  H   -0.040811  -0.000615  -0.000165   0.000018   0.000003   0.014856
     5  C    0.349954  -0.201056  -0.407729  -0.103774  -0.030315   0.126417
     6  C   -0.080396   0.024158  -0.150149   0.025063  -0.014144  -0.189898
     7  C    5.433351  -0.165241  -0.160401   0.018758  -0.003931  -0.011295
     8  C   -0.165241   5.312160   0.064749  -0.009278  -0.004656  -0.026429
     9  C   -0.160401   0.064749   6.173880   0.517700   0.395662   0.080714
    10  H    0.018758  -0.009278   0.517700   0.501221  -0.031848  -0.103476
    11  H   -0.003931  -0.004656   0.395662  -0.031848   0.540477  -0.021529
    12  C   -0.011295  -0.026429   0.080714  -0.103476  -0.021529   7.226791
    13  C    0.010202  -0.004859  -0.261021  -0.001783   0.001770  -0.380823
    14  C    0.254150  -0.040544   0.010454   0.000482  -0.001289  -0.004928
    15  H   -0.071131   0.005586  -0.000156  -0.000002   0.000070  -0.001171
    16  H   -0.030599  -0.007544  -0.000599  -0.000052   0.000188  -0.000089
    17  H   -0.026540  -0.002389   0.000624   0.000051  -0.000068   0.000994
    18  C    0.002747   0.308422   0.003537   0.008922  -0.008282  -0.004776
    19  H    0.000202  -0.052955   0.000337   0.000512  -0.000067  -0.000187
    20  H   -0.000104  -0.059349  -0.009639  -0.004573   0.002028   0.006246
    21  H    0.001632  -0.026732  -0.009455  -0.002990   0.001047  -0.003735
    22  C   -0.000154  -0.000041   0.001234   0.001536   0.001335  -0.259881
    23  H    0.000041   0.000003  -0.001839  -0.000119   0.000132  -0.011035
    24  H    0.000016  -0.000012   0.003331  -0.000095  -0.000107   0.067013
    25  H    0.000007   0.000003   0.000325  -0.000157  -0.000029   0.023205
    26  C    0.002133   0.000363   0.018170   0.000009  -0.000743  -0.072709
    27  H   -0.000719  -0.000007  -0.000126   0.000041  -0.000025  -0.019895
    28  H   -0.000811   0.000002  -0.000884   0.000001  -0.000091  -0.007469
    29  H    0.003779  -0.000005  -0.000494  -0.000009   0.000108   0.023454
              13         14         15         16         17         18
     1  O    0.710937  -0.000004  -0.000000  -0.000000  -0.000000  -0.000145
     2  O   -0.000029  -0.012132   0.004311   0.001548   0.001355  -0.105786
     3  N   -0.000018  -0.036120   0.002519   0.001774  -0.002937  -0.000620
     4  H    0.000343  -0.008582   0.001260   0.000751   0.000906   0.000019
     5  C    0.072075  -0.069328   0.017491  -0.010328  -0.003122  -0.275977
     6  C    0.193950   0.008911   0.006492  -0.000767  -0.002054   0.000697
     7  C    0.010202   0.254150  -0.071131  -0.030599  -0.026540   0.002747
     8  C   -0.004859  -0.040544   0.005586  -0.007544  -0.002389   0.308422
     9  C   -0.261021   0.010454  -0.000156  -0.000599   0.000624   0.003537
    10  H   -0.001783   0.000482  -0.000002  -0.000052   0.000051   0.008922
    11  H    0.001770  -0.001289   0.000070   0.000188  -0.000068  -0.008282
    12  C   -0.380823  -0.004928  -0.001171  -0.000089   0.000994  -0.004776
    13  C    5.424217  -0.000072  -0.000013  -0.000001  -0.000024   0.000337
    14  C   -0.000072   5.071037   0.382846   0.427611   0.410054   0.001511
    15  H   -0.000013   0.382846   0.581355  -0.027836  -0.026478   0.000306
    16  H   -0.000001   0.427611  -0.027836   0.508467  -0.026572  -0.000254
    17  H   -0.000024   0.410054  -0.026478  -0.026572   0.512676  -0.000116
    18  C    0.000337   0.001511   0.000306  -0.000254  -0.000116   5.363741
    19  H   -0.000014   0.000075  -0.000006   0.000025  -0.000017   0.389888
    20  H    0.000411   0.000050  -0.000017  -0.000040   0.000006   0.381745
    21  H   -0.000005  -0.000284  -0.000007   0.000030  -0.000007   0.395343
    22  C    0.279567  -0.000027   0.000002  -0.000000   0.000000   0.000020
    23  H   -0.021942  -0.000000   0.000000  -0.000000   0.000000  -0.000002
    24  H   -0.090311  -0.000002   0.000000   0.000000   0.000000   0.000003
    25  H   -0.041371   0.000000   0.000000   0.000000  -0.000000  -0.000001
    26  C   -0.053549   0.001465   0.000040   0.000061  -0.000193   0.000027
    27  H    0.006099  -0.000093   0.000001   0.000004  -0.000015  -0.000001
    28  H   -0.005601   0.000099  -0.000012  -0.000001   0.000001  -0.000000
    29  H   -0.000456  -0.000294   0.000134  -0.000005   0.000004   0.000000
              19         20         21         22         23         24
     1  O   -0.000004   0.000070   0.000028  -0.107274   0.001152   0.004646
     2  O    0.009487   0.003264   0.001229   0.000000  -0.000000  -0.000000
     3  N    0.000002   0.000117   0.000012  -0.000084  -0.000045  -0.000108
     4  H   -0.000001   0.000000  -0.000000   0.000117  -0.000017  -0.000051
     5  C    0.024611   0.039440   0.005575   0.003998  -0.000098  -0.000530
     6  C    0.000030  -0.001013   0.000244  -0.003251   0.011195  -0.035144
     7  C    0.000202  -0.000104   0.001632  -0.000154   0.000041   0.000016
     8  C   -0.052955  -0.059349  -0.026732  -0.000041   0.000003  -0.000012
     9  C    0.000337  -0.009639  -0.009455   0.001234  -0.001839   0.003331
    10  H    0.000512  -0.004573  -0.002990   0.001536  -0.000119  -0.000095
    11  H   -0.000067   0.002028   0.001047   0.001335   0.000132  -0.000107
    12  C   -0.000187   0.006246  -0.003735  -0.259881  -0.011035   0.067013
    13  C   -0.000014   0.000411  -0.000005   0.279567  -0.021942  -0.090311
    14  C    0.000075   0.000050  -0.000284  -0.000027  -0.000000  -0.000002
    15  H   -0.000006  -0.000017  -0.000007   0.000002   0.000000   0.000000
    16  H    0.000025  -0.000040   0.000030  -0.000000  -0.000000   0.000000
    17  H   -0.000017   0.000006  -0.000007   0.000000   0.000000   0.000000
    18  C    0.389888   0.381745   0.395343   0.000020  -0.000002   0.000003
    19  H    0.506989  -0.020532  -0.010407  -0.000000   0.000000   0.000000
    20  H   -0.020532   0.533580  -0.026187   0.000013  -0.000000  -0.000000
    21  H   -0.010407  -0.026187   0.506105  -0.000013   0.000000  -0.000000
    22  C   -0.000000   0.000013  -0.000013   5.425894   0.399935   0.399173
    23  H    0.000000  -0.000000   0.000000   0.399935   0.496698  -0.027156
    24  H    0.000000  -0.000000  -0.000000   0.399173  -0.027156   0.539119
    25  H   -0.000000  -0.000000  -0.000000   0.384972  -0.007938  -0.021638
    26  C    0.000000  -0.000013   0.000006  -0.026833  -0.015900   0.014882
    27  H   -0.000000  -0.000000   0.000000  -0.010649   0.001140  -0.001282
    28  H   -0.000000  -0.000000  -0.000000   0.009079  -0.000752  -0.010892
    29  H    0.000000   0.000000  -0.000000   0.001929   0.000238   0.000746
              25         26         27         28         29
     1  O    0.008084   0.000877  -0.000043  -0.000239   0.000027
     2  O    0.000000   0.000002  -0.000000   0.000000  -0.000000
     3  N    0.000033  -0.031771  -0.002240   0.003497  -0.000276
     4  H   -0.000002  -0.005446   0.000406   0.000920   0.000709
     5  C   -0.000135  -0.000060   0.000408   0.000037  -0.000582
     6  C   -0.001557   0.171477  -0.036700  -0.045826  -0.049125
     7  C    0.000007   0.002133  -0.000719  -0.000811   0.003779
     8  C    0.000003   0.000363  -0.000007   0.000002  -0.000005
     9  C    0.000325   0.018170  -0.000126  -0.000884  -0.000494
    10  H   -0.000157   0.000009   0.000041   0.000001  -0.000009
    11  H   -0.000029  -0.000743  -0.000025  -0.000091   0.000108
    12  C    0.023205  -0.072709  -0.019895  -0.007469   0.023454
    13  C   -0.041371  -0.053549   0.006099  -0.005601  -0.000456
    14  C    0.000000   0.001465  -0.000093   0.000099  -0.000294
    15  H    0.000000   0.000040   0.000001  -0.000012   0.000134
    16  H    0.000000   0.000061   0.000004  -0.000001  -0.000005
    17  H   -0.000000  -0.000193  -0.000015   0.000001   0.000004
    18  C   -0.000001   0.000027  -0.000001  -0.000000   0.000000
    19  H   -0.000000   0.000000  -0.000000  -0.000000   0.000000
    20  H   -0.000000  -0.000013  -0.000000  -0.000000   0.000000
    21  H   -0.000000   0.000006   0.000000  -0.000000  -0.000000
    22  C    0.384972  -0.026833  -0.010649   0.009079   0.001929
    23  H   -0.007938  -0.015900   0.001140  -0.000752   0.000238
    24  H   -0.021638   0.014882  -0.001282  -0.010892   0.000746
    25  H    0.493507   0.001880   0.000096   0.000938  -0.000045
    26  C    0.001880   5.260050   0.429632   0.426968   0.390620
    27  H    0.000096   0.429632   0.483745  -0.024702  -0.019712
    28  H    0.000938   0.426968  -0.024702   0.512967  -0.027039
    29  H   -0.000045   0.390620  -0.019712  -0.027039   0.521918
 Mulliken charges:
               1
     1  O   -0.362157
     2  O   -0.371173
     3  N   -0.229998
     4  H    0.279553
     5  C   -0.099977
     6  C    0.279880
     7  C    0.174638
     8  C    0.169916
     9  C   -0.267619
    10  H    0.167343
    11  H    0.167406
    12  C   -0.142361
    13  C    0.161985
    14  C   -0.395046
    15  H    0.124414
    16  H    0.164229
    17  H    0.163859
    18  C   -0.461305
    19  H    0.152032
    20  H    0.154499
    21  H    0.168573
    22  C   -0.500596
    23  H    0.176309
    24  H    0.158399
    25  H    0.159820
    26  C   -0.511443
    27  H    0.194635
    28  H    0.169811
    29  H    0.154378
 Sum of Mulliken charges =  -0.00000
 Mulliken charges with hydrogens summed into heavy atoms:
               1
     1  O   -0.362157
     2  O   -0.371173
     3  N    0.049555
     5  C   -0.099977
     6  C    0.279880
     7  C    0.174638
     8  C    0.169916
     9  C    0.067130
    12  C   -0.142361
    13  C    0.161985
    14  C    0.057455
    18  C    0.013799
    22  C   -0.006069
    26  C    0.007380
 Electronic spatial extent (au):  <R**2>=           3182.1500
 Charge=              0.0000 electrons
 Dipole moment (field-independent basis, Debye):
    X=              3.7644    Y=              6.9716    Z=             -0.4064  Tot=              7.9334
 Quadrupole moment (field-independent basis, Debye-Ang):
   XX=            -97.7028   YY=            -78.9926   ZZ=            -84.9805
   XY=             12.2014   XZ=              5.6729   YZ=             -1.3781
 Traceless Quadrupole moment (field-independent basis, Debye-Ang):
   XX=            -10.4775   YY=              8.2327   ZZ=              2.2448
   XY=             12.2014   XZ=              5.6729   YZ=             -1.3781
 Octapole moment (field-independent basis, Debye-Ang**2):
  XXX=            103.1106  YYY=             61.1023  ZZZ=              1.9062  XYY=            -33.3361
  XXY=             28.7542  XXZ=            -10.9081  XZZ=              2.4858  YZZ=             -1.5436
  YYZ=              2.8210  XYZ=             -5.1357
 Hexadecapole moment (field-independent basis, Debye-Ang**3):
 XXXX=          -3015.7047 YYYY=          -1276.6623 ZZZZ=           -161.6532 XXXY=             34.7077
 XXXZ=             65.2223 YYYX=             83.6054 YYYZ=            -21.6999 ZZZX=             -2.3922
 ZZZY=              6.3570 XXYY=           -692.8087 XXZZ=           -487.7997 YYZZ=           -242.9586
 XXYZ=             -6.3784 YYXZ=              6.1597 ZZXY=             -1.6476
 N-N= 9.007021792464D+02 E-N=-3.277444298794D+03  KE= 6.307024412756D+02
 No NMR shielding tensors so no spin-rotation constants.
 Leave Link  601 at Fri Jan 23 22:57:30 2026, MaxMem=  2147483648 cpu:               1.8 elap:               0.1
 (Enter /data/home/wyx/g16/l9999.exe)
 1\1\GINC-CN012\SP\RCAM-B3LYP\TZVP\C11H15N1O2\WYX\23-Jan-2026\0\\#p CAM
 -B3LYP TZVP em=gd3bj scrf=(Solvent=TetraHydroFuran,NonEquilibrium=Read
 ) Geom=Check Guess=Read\\Title Card Required\\0,1\O,0,2.834186,-1.5630
 35,0.17172\O,0,-3.416699,-1.616145,0.114221\N,0,-0.629619,1.508785,-0.
 397542\H,0,-0.937968,2.465585,-0.452661\C,0,-1.235438,-0.756829,-0.227
 48\C,0,0.705234,1.293201,-0.120626\C,0,-1.606629,0.540993,-0.302298\C,
 0,-2.225859,-1.825376,-0.08503\C,0,0.22442,-1.117347,-0.384186\H,0,0.4
 78874,-1.968317,0.243302\H,0,0.431192,-1.450627,-1.409812\C,0,1.152149
 ,0.021771,-0.02374\C,0,2.511446,-0.392312,0.335612\C,0,-2.999209,1.084
 82,-0.288085\H,0,-3.001636,2.130796,-0.595318\H,0,-3.651328,0.514082,-
 0.942405\H,0,-3.42642,1.014968,0.712035\C,0,-1.732591,-3.247712,-0.191
 248\H,0,-2.587914,-3.91708,-0.229149\H,0,-1.108105,-3.392168,-1.073454
 \H,0,-1.122147,-3.500918,0.678086\C,0,3.525521,0.546356,0.944339\H,0,4
 .041963,1.104865,0.161825\H,0,3.085731,1.258676,1.637572\H,0,4.264812,
 -0.058829,1.463584\C,0,1.468584,2.573653,0.035965\H,0,1.484843,2.89139
 6,1.079762\H,0,2.489817,2.495514,-0.315468\H,0,0.982789,3.361234,-0.53
 9521\\Version=ES64L-G16RevA.03\State=1-A\HF=-633.3285765\RMSD=7.116e-0
 9\Dipole=0.4926397,3.0763435,-0.1887196\Quadrupole=-12.7556272,10.3198
 011,2.4358261,2.6548243,2.5876617,0.5308009\PG=C01 [X(C11H15N1O2)]\\@


 THERE IS NO CURE FOR BIRTH AND DEATH SAVE TO ENJOY THE INTERVAL.

                               -- GEORGE SANTAYANA
 Job cpu time:       0 days  0 hours 11 minutes 50.3 seconds.
 Elapsed time:       0 days  0 hours  0 minutes 45.2 seconds.
 File lengths (MBytes):  RWF=    335 Int=      0 D2E=      0 Chk=     67 Scr=      1
 Normal termination of Gaussian 16 at Fri Jan 23 22:57:30 2026.
