 Entering Gaussian System, Link 0=g16
 Input=DDL-S1-cLR-gs-10.gjf
 Output=DDL-S1-cLR-gs-10.log
 Initial command:
 /data/home/wyx/g16/l1.exe "/scr/tmp/wyx/13106/Gau-1987142.inp" -scrdir="/scr/tmp/wyx/13106/"
 Entering Link 1 = /data/home/wyx/g16/l1.exe PID=   1987143.
  
 Copyright (c) 1988,1990,1992,1993,1995,1998,2003,2009,2016,
            Gaussian, Inc.  All Rights Reserved.
  
 This is part of the Gaussian(R) 16 program.  It is based on
 the Gaussian(R) 09 system (copyright 2009, Gaussian, Inc.),
 the Gaussian(R) 03 system (copyright 2003, Gaussian, Inc.),
 the Gaussian(R) 98 system (copyright 1998, Gaussian, Inc.),
 the Gaussian(R) 94 system (copyright 1995, Gaussian, Inc.),
 the Gaussian 92(TM) system (copyright 1992, Gaussian, Inc.),
 the Gaussian 90(TM) system (copyright 1990, Gaussian, Inc.),
 the Gaussian 88(TM) system (copyright 1988, Gaussian, Inc.),
 the Gaussian 86(TM) system (copyright 1986, Carnegie Mellon
 University), and the Gaussian 82(TM) system (copyright 1983,
 Carnegie Mellon University). Gaussian is a federally registered
 trademark of Gaussian, Inc.
  
 This software contains proprietary and confidential information,
 including trade secrets, belonging to Gaussian, Inc.
  
 This software is provided under written license and may be
 used, copied, transmitted, or stored only in accord with that
 written license.
  
 The following legend is applicable only to US Government
 contracts under FAR:
  
                    RESTRICTED RIGHTS LEGEND
  
 Use, reproduction and disclosure by the US Government is
 subject to restrictions as set forth in subparagraphs (a)
 and (c) of the Commercial Computer Software - Restricted
 Rights clause in FAR 52.227-19.
  
 Gaussian, Inc.
 340 Quinnipiac St., Bldg. 40, Wallingford CT 06492
  
  
 ---------------------------------------------------------------
 Warning -- This program may not be used in any manner that
 competes with the business of Gaussian, Inc. or will provide
 assistance to any competitor of Gaussian, Inc.  The licensee
 of this program is prohibited from giving any competitor of
 Gaussian, Inc. access to this program.  By using this program,
 the user acknowledges that Gaussian, Inc. is engaged in the
 business of creating and licensing software in the field of
 computational chemistry and represents and warrants to the
 licensee that it is not a competitor of Gaussian, Inc. and that
 it will not use this program in any manner prohibited above.
 ---------------------------------------------------------------
  

 Cite this work as:
 Gaussian 16, Revision A.03,
 M. J. Frisch, G. W. Trucks, H. B. Schlegel, G. E. Scuseria, 
 M. A. Robb, J. R. Cheeseman, G. Scalmani, V. Barone, 
 G. A. Petersson, H. Nakatsuji, X. Li, M. Caricato, A. V. Marenich, 
 J. Bloino, B. G. Janesko, R. Gomperts, B. Mennucci, H. P. Hratchian, 
 J. V. Ortiz, A. F. Izmaylov, J. L. Sonnenberg, D. Williams-Young, 
 F. Ding, F. Lipparini, F. Egidi, J. Goings, B. Peng, A. Petrone, 
 T. Henderson, D. Ranasinghe, V. G. Zakrzewski, J. Gao, N. Rega, 
 G. Zheng, W. Liang, M. Hada, M. Ehara, K. Toyota, R. Fukuda, 
 J. Hasegawa, M. Ishida, T. Nakajima, Y. Honda, O. Kitao, H. Nakai, 
 T. Vreven, K. Throssell, J. A. Montgomery, Jr., J. E. Peralta, 
 F. Ogliaro, M. J. Bearpark, J. J. Heyd, E. N. Brothers, K. N. Kudin, 
 V. N. Staroverov, T. A. Keith, R. Kobayashi, J. Normand, 
 K. Raghavachari, A. P. Rendell, J. C. Burant, S. S. Iyengar, 
 J. Tomasi, M. Cossi, J. M. Millam, M. Klene, C. Adamo, R. Cammi, 
 J. W. Ochterski, R. L. Martin, K. Morokuma, O. Farkas, 
 J. B. Foresman, and D. J. Fox, Gaussian, Inc., Wallingford CT, 2016.
 
 ******************************************
 Gaussian 16:  ES64L-G16RevA.03 25-Dec-2016
                23-Jan-2026 
 ******************************************
 %nprocshared=16
 Will use up to   16 processors via shared memory.
 %mem=16GB
 %oldchk=DDL-S1-cLR-10.chk
 %chk=DDL-S1-cLR-gs-10.chk
 Copying data from "DDL-S1-cLR-10.chk" to current chk file "DDL-S1-cLR-gs-10.chk"
 IOpt=  2 FromEx=T IUOpen= 4 IOptOp= 5 NList=   0 IFRang= 0 IUIn= 4 IUOut= 2.
 ----------------------------------------------------------------------
 #p CAM-B3LYP TZVP em=gd3bj scrf=(Solvent=TetraHydroFuran,NonEquilibriu
 m=Read) Geom=Check Guess=Read
 ----------------------------------------------------------------------
 1/29=2,38=1,172=1/1;
 2/12=2,40=1/2;
 3/5=19,7=101,11=2,14=-4,25=1,30=1,70=6002201,72=20,74=-40,116=-2,124=41/1,2,3;
 4/5=1/1;
 5/5=2,38=6,53=20/2;
 6/7=2,8=2,9=2,10=2,28=1/1;
 99/5=1,9=1/99;
 Leave Link    1 at Fri Jan 23 22:45:56 2026, MaxMem=  2147483648 cpu:               0.8 elap:               0.1
 (Enter /data/home/wyx/g16/l101.exe)
 -------------------
 Title Card Required
 -------------------
 Structure from the checkpoint file:  "DDL-S1-cLR-gs-10.chk"
 Charge =  0 Multiplicity = 1
 Z-Matrix found in chk file.
 O,0,2.83728,-1.567999,0.10986
 O,0,-3.423925,-1.631119,-0.003771
 N,0,-0.645845,1.513416,-0.299757
 H,0,-0.955941,2.471832,-0.352195
 C,0,-1.241712,-0.759173,-0.215224
 C,0,0.693005,1.312111,-0.075837
 C,0,-1.620925,0.558075,-0.272713
 C,0,-2.219571,-1.834676,-0.130256
 C,0,0.210436,-1.100856,-0.29372
 H,0,0.445614,-1.932095,0.372715
 H,0,0.451476,-1.50274,-1.289925
 C,0,1.149958,0.023988,0.006447
 C,0,2.514862,-0.396705,0.30537
 C,0,-3.009506,1.094465,-0.316623
 H,0,-3.011495,2.161633,-0.530987
 H,0,-3.604571,0.585998,-1.067194
 H,0,-3.517688,0.936001,0.630868
 C,0,-1.723892,-3.253853,-0.188795
 H,0,-2.560126,-3.924674,-0.349755
 H,0,-0.988069,-3.407961,-0.972958
 H,0,-1.246045,-3.529866,0.749934
 C,0,3.544574,0.537713,0.89243
 H,0,4.056132,1.087352,0.100054
 H,0,3.121944,1.258039,1.587977
 H,0,4.285845,-0.070162,1.406075
 C,0,1.467762,2.58493,0.030338
 H,0,1.591885,2.894403,1.067865
 H,0,2.451681,2.502089,-0.414331
 H,0,0.946855,3.389833,-0.485892
 Recover connectivity data from disk.
 ITRead=  0  0  0  0  0  0  0  0  0  0  0  0  0  0  0  0  0  0  0  0
 ITRead=  0  0  0  0  0  0  0  0  0
 MicOpt= -1 -1 -1 -1 -1 -1 -1 -1 -1 -1 -1 -1 -1 -1 -1 -1 -1 -1 -1 -1
 MicOpt= -1 -1 -1 -1 -1 -1 -1 -1 -1
 NAtoms=     29 NQM=       29 NQMF=       0 NMMI=      0 NMMIF=      0
                NMic=       0 NMicF=      0.
                    Isotopes and Nuclear Properties:
 (Nuclear quadrupole moments (NQMom) in fm**2, nuclear magnetic moments (NMagM)
  in nuclear magnetons)

  Atom         1           2           3           4           5           6           7           8           9          10
 IAtWgt=          16          16          14           1          12          12          12          12          12           1
 AtmWgt=  15.9949146  15.9949146  14.0030740   1.0078250  12.0000000  12.0000000  12.0000000  12.0000000  12.0000000   1.0078250
 NucSpn=           0           0           2           1           0           0           0           0           0           1
 AtZEff=   5.6000000   5.6000000   4.5500000   1.0000000   3.6000000   3.6000000   3.6000000   3.6000000   3.6000000   1.0000000
 NQMom=    0.0000000   0.0000000   2.0440000   0.0000000   0.0000000   0.0000000   0.0000000   0.0000000   0.0000000   0.0000000
 NMagM=    0.0000000   0.0000000   0.4037610   2.7928460   0.0000000   0.0000000   0.0000000   0.0000000   0.0000000   2.7928460
 AtZNuc=   8.0000000   8.0000000   7.0000000   1.0000000   6.0000000   6.0000000   6.0000000   6.0000000   6.0000000   1.0000000

  Atom        11          12          13          14          15          16          17          18          19          20
 IAtWgt=           1          12          12          12           1           1           1          12           1           1
 AtmWgt=   1.0078250  12.0000000  12.0000000  12.0000000   1.0078250   1.0078250   1.0078250  12.0000000   1.0078250   1.0078250
 NucSpn=           1           0           0           0           1           1           1           0           1           1
 AtZEff=   1.0000000   3.6000000   3.6000000   3.6000000   1.0000000   1.0000000   1.0000000   3.6000000   1.0000000   1.0000000
 NQMom=    0.0000000   0.0000000   0.0000000   0.0000000   0.0000000   0.0000000   0.0000000   0.0000000   0.0000000   0.0000000
 NMagM=    2.7928460   0.0000000   0.0000000   0.0000000   2.7928460   2.7928460   2.7928460   0.0000000   2.7928460   2.7928460
 AtZNuc=   1.0000000   6.0000000   6.0000000   6.0000000   1.0000000   1.0000000   1.0000000   6.0000000   1.0000000   1.0000000

  Atom        21          22          23          24          25          26          27          28          29
 IAtWgt=           1          12           1           1           1          12           1           1           1
 AtmWgt=   1.0078250  12.0000000   1.0078250   1.0078250   1.0078250  12.0000000   1.0078250   1.0078250   1.0078250
 NucSpn=           1           0           1           1           1           0           1           1           1
 AtZEff=   1.0000000   3.6000000   1.0000000   1.0000000   1.0000000   3.6000000   1.0000000   1.0000000   1.0000000
 NQMom=    0.0000000   0.0000000   0.0000000   0.0000000   0.0000000   0.0000000   0.0000000   0.0000000   0.0000000
 NMagM=    2.7928460   0.0000000   2.7928460   2.7928460   2.7928460   0.0000000   2.7928460   2.7928460   2.7928460
 AtZNuc=   1.0000000   6.0000000   1.0000000   1.0000000   1.0000000   6.0000000   1.0000000   1.0000000   1.0000000
 Leave Link  101 at Fri Jan 23 22:45:59 2026, MaxMem=  2147483648 cpu:               0.8 elap:               0.1
 (Enter /data/home/wyx/g16/l202.exe)
                          Input orientation:                          
 ---------------------------------------------------------------------
 Center     Atomic      Atomic             Coordinates (Angstroms)
 Number     Number       Type             X           Y           Z
 ---------------------------------------------------------------------
      1          8           0        2.837280   -1.567999    0.109860
      2          8           0       -3.423925   -1.631119   -0.003771
      3          7           0       -0.645845    1.513416   -0.299757
      4          1           0       -0.955941    2.471832   -0.352195
      5          6           0       -1.241712   -0.759173   -0.215224
      6          6           0        0.693005    1.312111   -0.075837
      7          6           0       -1.620925    0.558075   -0.272713
      8          6           0       -2.219571   -1.834676   -0.130256
      9          6           0        0.210436   -1.100856   -0.293720
     10          1           0        0.445614   -1.932095    0.372715
     11          1           0        0.451476   -1.502740   -1.289925
     12          6           0        1.149958    0.023988    0.006447
     13          6           0        2.514862   -0.396705    0.305370
     14          6           0       -3.009506    1.094465   -0.316623
     15          1           0       -3.011495    2.161633   -0.530987
     16          1           0       -3.604571    0.585998   -1.067194
     17          1           0       -3.517688    0.936001    0.630868
     18          6           0       -1.723892   -3.253853   -0.188795
     19          1           0       -2.560126   -3.924674   -0.349755
     20          1           0       -0.988069   -3.407961   -0.972958
     21          1           0       -1.246045   -3.529866    0.749934
     22          6           0        3.544574    0.537713    0.892430
     23          1           0        4.056132    1.087352    0.100054
     24          1           0        3.121944    1.258039    1.587977
     25          1           0        4.285845   -0.070162    1.406075
     26          6           0        1.467762    2.584930    0.030338
     27          1           0        1.591885    2.894403    1.067865
     28          1           0        2.451681    2.502089   -0.414331
     29          1           0        0.946855    3.389833   -0.485892
 ---------------------------------------------------------------------
                    Distance matrix (angstroms):
                    1          2          3          4          5
     1  O    0.000000
     2  O    6.262554   0.000000
     3  N    4.668518   4.206357   0.000000
     4  H    5.560778   4.800682   1.008697   0.000000
     5  C    4.171098   2.359461   2.350928   3.246509   0.000000
     6  C    3.595474   5.061315   1.372291   2.034785   2.837741
     7  C    4.954003   2.848808   1.365353   2.027557   1.371951
     8  C    5.069567   1.227967   3.703385   4.493554   1.456068
     9  C    2.698409   3.684268   2.750940   3.758717   1.493868
    10  H    2.433459   3.899444   3.676282   4.678079   2.137402
    11  H    2.766897   4.085267   3.358831   4.319419   2.138869
    12  C    2.322105   4.864143   2.353097   3.248904   2.526374
    13  C    1.230491   6.073593   3.742300   4.550535   3.809757
    14  C    6.438595   2.774604   2.400562   2.472961   2.563465
    15  H    6.966277   3.851366   2.463727   2.086502   3.429715
    16  H    6.893664   2.465585   3.194233   3.329089   2.849288
    17  H    6.850335   2.646066   3.073590   3.144477   2.961343
    18  C    4.871918   2.357459   4.888901   5.779266   2.540989
    19  H    5.907381   2.475126   5.765396   6.594597   3.431721
    20  H    4.380782   3.166999   4.978983   5.912558   2.766690
    21  H    4.575168   2.986046   5.186211   6.108947   2.933988
    22  C    2.355144   7.353026   4.464630   5.054161   5.081077
    23  H    2.921744   7.959404   4.738140   5.219405   5.619271
    24  H    3.201930   7.330027   4.221965   4.676185   5.134411
    25  H    2.453982   7.991546   5.453361   6.085192   5.801485
    26  C    4.373640   6.457928   2.392580   2.456310   4.310983
    27  H    4.730942   6.840110   2.963942   2.947296   4.798355
    28  H    4.121781   7.195465   3.253501   3.408323   4.931189
    29  H    5.339356   6.674288   2.468255   2.116892   4.698653
                    6          7          8          9         10
     6  C    0.000000
     7  C    2.441639   0.000000
     8  C    4.288161   2.470613   0.000000
     9  C    2.470376   2.471108   2.543648   0.000000
    10  H    3.284399   3.299713   2.713979   1.091056   0.000000
    11  H    3.075017   3.094596   2.930786   1.100925   1.717193
    12  C    1.369247   2.835661   3.850590   1.496020   2.111046
    13  C    2.526764   4.283751   4.967131   2.482965   2.577546
    14  C    3.716710   1.489228   3.039506   3.897177   4.644686
    15  H    3.827815   2.138174   4.093680   4.591402   5.433865
    16  H    4.469809   2.137015   2.942064   4.242407   4.981780
    17  H    4.286120   2.134712   3.152946   4.347707   4.899018
    18  C    5.167415   3.814242   1.504390   2.896210   2.601748
    19  H    6.171046   4.580728   2.128908   3.956400   3.677881
    20  H    5.090178   4.076799   2.168403   2.687101   2.458549
    21  H    5.280772   4.230556   2.143865   3.018384   2.357303
    22  C    3.109450   5.295314   6.316604   3.899787   3.996700
    23  H    3.375215   5.713849   6.926452   4.442149   4.714578
    24  H    2.944647   5.142657   6.406949   4.193095   4.337806
    25  H    4.124953   6.172758   6.913339   4.534379   4.391128
    26  C    1.493851   3.706746   5.758049   3.907800   4.643869
    27  H    2.149346   4.192580   6.190871   4.441217   5.009217
    28  H    2.150248   4.515016   6.380347   4.244872   4.930085
    29  H    2.132959   3.828550   6.119495   4.554726   5.413997
                   11         12         13         14         15
    11  H    0.000000
    12  C    2.121169   0.000000
    13  C    2.832992   1.459212   0.000000
    14  C    4.435221   4.307138   5.755789   0.000000
    15  H    5.098606   4.709146   6.146967   1.088487   0.000000
    16  H    4.567708   4.906537   6.347999   1.084434   1.766885
    17  H    5.038965   4.796727   6.186575   1.086784   1.763041
    18  C    3.001851   4.363642   5.135614   4.536189   5.576962
    19  H    3.977365   5.429874   6.215405   5.039325   6.105711
    20  H    2.408864   4.160369   4.792944   4.978838   5.942219
    21  H    3.339437   4.350113   4.915156   5.062783   6.095140
    22  C    4.300393   2.604432   1.509332   6.687881   6.902556
    23  H    4.651254   3.096022   2.149440   7.077917   7.176604
    24  H    4.799544   2.812978   2.179864   6.422534   6.551760
    25  H    4.901335   3.435347   2.110583   7.585921   7.873010
    26  C    4.414179   2.580696   3.172098   4.731574   4.534094
    27  H    5.118063   3.092117   3.502096   5.131217   4.927919
    28  H    4.561375   2.830640   2.987468   5.640524   5.475017
    29  H    4.982885   3.407721   4.174040   4.577134   4.144761
                   16         17         18         19         20
    16  H    0.000000
    17  H    1.735934   0.000000
    18  C    4.364974   4.630813   0.000000
    19  H    4.685269   5.050219   1.084065   0.000000
    20  H    4.775633   5.276480   1.086322   1.768258   0.000000
    21  H    5.079856   5.011837   1.088914   1.758408   1.746359
    22  C    7.413011   7.078318   6.580407   7.663112   6.292286
    23  H    7.765320   7.593907   7.234513   8.312497   6.841283
    24  H    7.262753   6.715987   6.855379   7.931030   6.724742
    25  H    8.294954   7.906228   6.985445   8.050312   6.679436
    26  C    5.561373   5.285292   6.657782   7.664418   6.553812
    27  H    6.073744   5.489448   7.097508   8.108554   7.109213
    28  H    6.385595   6.259268   7.114573   8.150194   6.860950
    29  H    5.377256   5.215418   7.166570   8.112919   7.084572
                   21         22         23         24         25
    21  H    0.000000
    22  C    6.286138   0.000000
    23  H    7.060745   1.091629   0.000000
    24  H    6.534958   1.086863   1.765150   0.000000
    25  H    6.557582   1.087578   1.760198   1.775351   0.000000
    26  C    6.728543   3.040962   2.991197   2.631197   4.108985
    27  H    7.030374   3.065577   3.205402   2.299844   4.020006
    28  H    7.170298   2.600156   2.200076   2.450745   3.646164
    29  H    7.363308   4.096645   3.913100   3.684629   5.167200
                   26         27         28         29
    26  C    0.000000
    27  H    1.089790   0.000000
    28  H    1.082908   1.757858   0.000000
    29  H    1.088901   1.753760   1.748631   0.000000
 Stoichiometry    C11H15NO2
 Framework group  C1[X(C11H15NO2)]
 Deg. of freedom    81
 Full point group                 C1      NOp   1
 RotChk:  IX=0 Diff= 7.54D-16
 Largest Abelian subgroup         C1      NOp   1
 Largest concise Abelian subgroup C1      NOp   1
                         Standard orientation:                         
 ---------------------------------------------------------------------
 Center     Atomic      Atomic             Coordinates (Angstroms)
 Number     Number       Type             X           Y           Z
 ---------------------------------------------------------------------
      1          8           0        2.287231   -2.280285   -0.223974
      2          8           0       -3.607408   -0.250473    0.369897
      3          7           0        0.022570    1.801944   -0.181721
      4          1           0        0.049680    2.810277   -0.181531
      5          6           0       -1.291996   -0.143967   -0.071216
      6          6           0        1.230766    1.154723   -0.114260
      7          6           0       -1.209284    1.225456   -0.061781
      8          6           0       -2.561092   -0.835835    0.104422
      9          6           0       -0.055373   -0.944437   -0.319516
     10          1           0       -0.048121   -1.841821    0.301011
     11          1           0       -0.065097   -1.348293   -1.343645
     12          6           0        1.233134   -0.214505   -0.107329
     13          6           0        2.399389   -1.081051    0.027753
     14          6           0       -2.333133    2.194803    0.061230
     15          1           0       -1.997212    3.211906   -0.132322
     16          1           0       -3.136859    1.955281   -0.626267
     17          1           0       -2.767081    2.162672    1.057099
     18          6           0       -2.580740   -2.333595   -0.035278
     19          1           0       -3.605690   -2.678096   -0.112691
     20          1           0       -2.022501   -2.680430   -0.900247
     21          1           0       -2.131992   -2.803946    0.838294
     22          6           0        3.737040   -0.576147    0.511327
     23          1           0        4.321442   -0.185386   -0.323798
     24          1           0        3.653769    0.204418    1.263029
     25          1           0        4.277973   -1.423228    0.926863
     26          6           0        2.395349    2.089428   -0.073503
     27          1           0        2.719988    2.282532    0.948731
     28          1           0        3.243966    1.708514   -0.627979
     29          1           0        2.126809    3.048830   -0.512980
 ---------------------------------------------------------------------
 Rotational constants (GHZ):           1.0788077           0.4906132           0.3453601
 Leave Link  202 at Fri Jan 23 22:45:59 2026, MaxMem=  2147483648 cpu:               0.0 elap:               0.0
 (Enter /data/home/wyx/g16/l301.exe)
 Standard basis: TZVP (5D, 7F)
 Ernie: Thresh=  0.10000D-02 Tol=  0.10000D-05 Strict=F.
 There are   370 symmetry adapted cartesian basis functions of A   symmetry.
 There are   356 symmetry adapted basis functions of A   symmetry.
   356 basis functions,   610 primitive gaussians,   370 cartesian basis functions
    52 alpha electrons       52 beta electrons
       nuclear repulsion energy       900.6293921568 Hartrees.
 IExCor=20419 DFT=T Ex+Corr=CAM-B3LYP ExCW=0 ScaHFX=  1.000000
 ScaDFX=  1.000000  1.000000  1.000000  0.810000 ScalE2=  1.000000  1.000000
 IRadAn=      5 IRanWt=     -1 IRanGd=            0 ICorTp=0 IEmpDi=141
 HFx  wShort=  0.000000 wLong=  0.330000 cFull=  0.190000 cShort=  0.000000 cLong=  0.460000
 DFx  wShort=  0.000000 wLong=  0.330000 cFull=  0.190000 cShort=  0.000000 cLong=  0.460000
 NAtoms=   29 NActive=   29 NUniq=   29 SFac= 1.00D+00 NAtFMM=   60 NAOKFM=F Big=F
 Integral buffers will be    131072 words long.
 Raffenetti 2 integral format.
 Two-electron integral symmetry is turned on.
 R6Disp:  Grimme-D3(BJ) Dispersion energy=       -0.0261836516 Hartrees.
 Nuclear repulsion after empirical dispersion term =      900.6032085051 Hartrees.
 ------------------------------------------------------------------------------
 Polarizable Continuum Model (PCM)
 =================================
 Model                : PCM.
 Atomic radii         : UFF (Universal Force Field).
 Polarization charges : Total charges.
 Charge compensation  : None.
 Solution method      : On-the-fly selection.
 Cavity type          : Scaled VdW (van der Waals Surface) (Alpha=1.100).
 Cavity algorithm     : GePol (No added spheres)
                        Default sphere list used, NSphG=   29.
                        Lebedev-Laikov grids with approx.  5.0 points / Ang**2.
                        Smoothing algorithm: York/Karplus (Gamma=1.0000).
                        Polarization charges: spherical gaussians, with
                                              point-specific exponents (IZeta= 3).
                        Self-potential: point-specific (ISelfS= 7).
                        Self-field    : sphere-specific E.n sum rule (ISelfD= 2).
 Solvent              : TetraHydroFuran, Eps=   7.425700 Eps(inf)=   1.974025
 ------------------------------------------------------------------------------
 GePol: Number of generator spheres                  =      29
 GePol: Total number of spheres                      =      29
 GePol: Number of exposed spheres                    =      29 (100.00%)
 GePol: Number of points                             =    2107
 GePol: Average weight of points                     =       0.13
 GePol: Minimum weight of points                     =   0.26D-08
 GePol: Maximum weight of points                     =    0.20577
 GePol: Number of points with low weight             =     138
 GePol: Fraction of low-weight points (<1% of avg)   =       6.55%
 GePol: Cavity surface area                          =    268.446 Ang**2
 GePol: Cavity volume                                =    286.477 Ang**3
 Leave Link  301 at Fri Jan 23 22:46:00 2026, MaxMem=  2147483648 cpu:               0.6 elap:               0.0
 (Enter /data/home/wyx/g16/l302.exe)
 NPDir=0 NMtPBC=     1 NCelOv=     1 NCel=       1 NClECP=     1 NCelD=      1
         NCelK=      1 NCelE2=     1 NClLst=     1 CellRange=     0.0.
 One-electron integrals computed using PRISM.
 One-electron integral symmetry used in STVInt
 NBasis=   356 RedAO= T EigKep=  4.67D-05  NBF=   356
 NBsUse=   356 1.00D-06 EigRej= -1.00D+00 NBFU=   356
 Precomputing XC quadrature grid using
 IXCGrd= 4 IRadAn=           5 IRanWt=          -1 IRanGd=           0 AccXCQ= 0.00D+00.
 Generated NRdTot=       0 NPtTot=           0 NUsed=           0 NTot=          32
 NSgBfM=   366   366   366   366   366 MxSgAt=    29 MxSgA2=    29.
 Leave Link  302 at Fri Jan 23 22:46:00 2026, MaxMem=  2147483648 cpu:               3.1 elap:               0.2
 (Enter /data/home/wyx/g16/l303.exe)
 DipDrv:  MaxL=1.
 Leave Link  303 at Fri Jan 23 22:46:00 2026, MaxMem=  2147483648 cpu:               0.6 elap:               0.0
 (Enter /data/home/wyx/g16/l401.exe)
 Initial guess from the checkpoint file:  "DDL-S1-cLR-gs-10.chk"
 B after Tr=    -0.000000   -0.000000   -0.000000
         Rot=    1.000000    0.000000   -0.000000   -0.000000 Ang=   0.00 deg.
 Guess basis will be translated and rotated to current coordinates.
 JPrj=2 DoOrth=T DoCkMO=T.
 Leave Link  401 at Fri Jan 23 22:46:01 2026, MaxMem=  2147483648 cpu:               2.2 elap:               0.1
 (Enter /data/home/wyx/g16/l502.exe)
 Integral symmetry usage will be decided dynamically.
 Closed shell SCF:
 Using DIIS extrapolation, IDIIS=  1040.
 NGot=  2147483648 LenX=  2147200095 LenY=  2147062754
 Requested convergence on RMS density matrix=1.00D-08 within 128 cycles.
 Requested convergence on MAX density matrix=1.00D-06.
 Requested convergence on             energy=1.00D-06.
 No special actions if energy rises.
 Fock matrices will be formed incrementally for  20 cycles.

 Cycle   1  Pass 1  IDiag  1:
 FoFJK:  IHMeth= 1 ICntrl=       0 DoSepK=T KAlg= 0 I1Cent=           0 FoldK=F
 IRaf=         1 NMat=       1 IRICut=       1 DoRegI=T DoRafI=F ISym2E= 0 IDoP0=0 IntGTp=1.
 FoFCou: FMM=F IPFlag=           0 FMFlag=      100000 FMFlg1=           0
         NFxFlg=           0 DoJE=T BraDBF=F KetDBF=F FulRan=T
         wScrn=  0.000000 ICntrl=       500 IOpCl=  0 I1Cent=           0 NGrid=           0
         NMat0=    1 NMatS0=      1 NMatT0=    0 NMatD0=    1 NMtDS0=    0 NMtDT0=    0
 Symmetry not used in FoFCou.
 Inv3:  Mode=1 IEnd=    13318347.
 Iteration    1 A*A^-1 deviation from unit magnitude is 3.22D-15 for    489.
 Iteration    1 A*A^-1 deviation from orthogonality  is 1.71D-15 for   1402      5.
 Iteration    1 A^-1*A deviation from unit magnitude is 3.22D-15 for    489.
 Iteration    1 A^-1*A deviation from orthogonality  is 3.77D-15 for   1958    364.
 NEqPCM:  Using non-equilibrium solvation (IEInf=1, Eps=   7.4257, EpsInf=   1.9740)
 Inv3:  Mode=1 IEnd=    13318347.
 Iteration    1 A*A^-1 deviation from unit magnitude is 3.44D-15 for   1788.
 Iteration    1 A*A^-1 deviation from orthogonality  is 2.27D-15 for   1348    967.
 Iteration    1 A^-1*A deviation from unit magnitude is 3.44D-15 for   1788.
 Iteration    1 A^-1*A deviation from orthogonality  is 1.69D-15 for   1357     35.
 E= -633.326631980270    
 DIIS: error= 2.28D-04 at cycle   1 NSaved=   1.
 NSaved= 1 IEnMin= 1 EnMin= -633.326631980270     IErMin= 1 ErrMin= 2.28D-04
 ErrMax= 2.28D-04  0.00D+00 EMaxC= 1.00D-01 BMatC= 1.09D-05 BMatP= 1.09D-05
 IDIUse=3 WtCom= 9.98D-01 WtEn= 2.28D-03
 Coeff-Com:  0.100D+01
 Coeff-En:   0.100D+01
 Coeff:      0.100D+01
 Gap=     0.229 Goal=   None    Shift=    0.000
 RMSDP=1.42D-04 MaxDP=8.42D-03              OVMax= 3.13D-03

 Cycle   2  Pass 1  IDiag  1:
 RMSU=  1.41D-04    CP:  9.99D-01
 E= -633.326651912480     Delta-E=       -0.000019932209 Rises=F Damp=F
 DIIS: error= 1.21D-04 at cycle   2 NSaved=   2.
 NSaved= 2 IEnMin= 2 EnMin= -633.326651912480     IErMin= 2 ErrMin= 1.21D-04
 ErrMax= 1.21D-04  0.00D+00 EMaxC= 1.00D-01 BMatC= 6.97D-06 BMatP= 1.09D-05
 IDIUse=3 WtCom= 9.99D-01 WtEn= 1.21D-03
 Coeff-Com:  0.423D+00 0.577D+00
 Coeff-En:   0.000D+00 0.100D+01
 Coeff:      0.423D+00 0.577D+00
 Gap=     0.230 Goal=   None    Shift=    0.000
 RMSDP=2.67D-05 MaxDP=2.09D-03 DE=-1.99D-05 OVMax= 9.25D-04

 Cycle   3  Pass 1  IDiag  1:
 RMSU=  2.16D-05    CP:  1.00D+00  9.16D-01
 E= -633.326657689537     Delta-E=       -0.000005777057 Rises=F Damp=F
 DIIS: error= 8.48D-05 at cycle   3 NSaved=   3.
 NSaved= 3 IEnMin= 3 EnMin= -633.326657689537     IErMin= 3 ErrMin= 8.48D-05
 ErrMax= 8.48D-05  0.00D+00 EMaxC= 1.00D-01 BMatC= 1.49D-06 BMatP= 6.97D-06
 IDIUse=1 WtCom= 1.00D+00 WtEn= 0.00D+00
 Coeff-Com:  0.746D-01 0.300D+00 0.625D+00
 Coeff:      0.746D-01 0.300D+00 0.625D+00
 Gap=     0.230 Goal=   None    Shift=    0.000
 RMSDP=9.83D-06 MaxDP=4.72D-04 DE=-5.78D-06 OVMax= 4.93D-04

 Cycle   4  Pass 1  IDiag  1:
 RMSU=  9.11D-06    CP:  9.99D-01  9.15D-01  8.92D-01
 E= -633.326658885079     Delta-E=       -0.000001195542 Rises=F Damp=F
 DIIS: error= 1.75D-05 at cycle   4 NSaved=   4.
 NSaved= 4 IEnMin= 4 EnMin= -633.326658885079     IErMin= 4 ErrMin= 1.75D-05
 ErrMax= 1.75D-05  0.00D+00 EMaxC= 1.00D-01 BMatC= 1.25D-07 BMatP= 1.49D-06
 IDIUse=1 WtCom= 1.00D+00 WtEn= 0.00D+00
 Coeff-Com: -0.102D-01 0.546D-01 0.246D+00 0.710D+00
 Coeff:     -0.102D-01 0.546D-01 0.246D+00 0.710D+00
 Gap=     0.230 Goal=   None    Shift=    0.000
 RMSDP=4.87D-06 MaxDP=3.05D-04 DE=-1.20D-06 OVMax= 1.66D-04

 Cycle   5  Pass 1  IDiag  1:
 RMSU=  2.87D-06    CP:  1.00D+00  9.21D-01  1.04D+00  1.14D+00
 E= -633.326658995535     Delta-E=       -0.000000110456 Rises=F Damp=F
 DIIS: error= 5.91D-06 at cycle   5 NSaved=   5.
 NSaved= 5 IEnMin= 5 EnMin= -633.326658995535     IErMin= 5 ErrMin= 5.91D-06
 ErrMax= 5.91D-06  0.00D+00 EMaxC= 1.00D-01 BMatC= 2.18D-08 BMatP= 1.25D-07
 IDIUse=1 WtCom= 1.00D+00 WtEn= 0.00D+00
 Coeff-Com: -0.123D-01-0.177D-01 0.249D-01 0.318D+00 0.687D+00
 Coeff:     -0.123D-01-0.177D-01 0.249D-01 0.318D+00 0.687D+00
 Gap=     0.230 Goal=   None    Shift=    0.000
 RMSDP=1.36D-06 MaxDP=7.65D-05 DE=-1.10D-07 OVMax= 7.36D-05

 Cycle   6  Pass 1  IDiag  1:
 RMSU=  9.32D-07    CP:  1.00D+00  9.20D-01  1.07D+00  1.23D+00  1.07D+00
 E= -633.326659020421     Delta-E=       -0.000000024887 Rises=F Damp=F
 DIIS: error= 3.06D-06 at cycle   6 NSaved=   6.
 NSaved= 6 IEnMin= 6 EnMin= -633.326659020421     IErMin= 6 ErrMin= 3.06D-06
 ErrMax= 3.06D-06  0.00D+00 EMaxC= 1.00D-01 BMatC= 2.04D-09 BMatP= 2.18D-08
 IDIUse=1 WtCom= 1.00D+00 WtEn= 0.00D+00
 Coeff-Com: -0.245D-02-0.121D-01-0.122D-01 0.221D-01 0.224D+00 0.780D+00
 Coeff:     -0.245D-02-0.121D-01-0.122D-01 0.221D-01 0.224D+00 0.780D+00
 Gap=     0.230 Goal=   None    Shift=    0.000
 RMSDP=8.36D-07 MaxDP=6.09D-05 DE=-2.49D-08 OVMax= 4.78D-05

 Cycle   7  Pass 1  IDiag  1:
 RMSU=  3.43D-07    CP:  1.00D+00  9.19D-01  1.08D+00  1.27D+00  1.21D+00
                    CP:  1.24D+00
 E= -633.326659023603     Delta-E=       -0.000000003182 Rises=F Damp=F
 DIIS: error= 1.55D-06 at cycle   7 NSaved=   7.
 NSaved= 7 IEnMin= 7 EnMin= -633.326659023603     IErMin= 7 ErrMin= 1.55D-06
 ErrMax= 1.55D-06  0.00D+00 EMaxC= 1.00D-01 BMatC= 7.58D-10 BMatP= 2.04D-09
 IDIUse=1 WtCom= 1.00D+00 WtEn= 0.00D+00
 Coeff-Com:  0.882D-03-0.399D-02-0.783D-02-0.444D-01-0.100D-01 0.415D+00
 Coeff-Com:  0.650D+00
 Coeff:      0.882D-03-0.399D-02-0.783D-02-0.444D-01-0.100D-01 0.415D+00
 Coeff:      0.650D+00
 Gap=     0.230 Goal=   None    Shift=    0.000
 RMSDP=2.84D-07 MaxDP=1.89D-05 DE=-3.18D-09 OVMax= 2.25D-05

 Cycle   8  Pass 1  IDiag  1:
 RMSU=  1.34D-07    CP:  1.00D+00  9.18D-01  1.09D+00  1.28D+00  1.25D+00
                    CP:  1.39D+00  1.03D+00
 E= -633.326659024678     Delta-E=       -0.000000001075 Rises=F Damp=F
 DIIS: error= 6.43D-07 at cycle   8 NSaved=   8.
 NSaved= 8 IEnMin= 8 EnMin= -633.326659024678     IErMin= 8 ErrMin= 6.43D-07
 ErrMax= 6.43D-07  0.00D+00 EMaxC= 1.00D-01 BMatC= 6.54D-11 BMatP= 7.58D-10
 IDIUse=1 WtCom= 1.00D+00 WtEn= 0.00D+00
 Coeff-Com:  0.709D-03 0.101D-03 0.845D-03-0.168D-01-0.461D-01-0.141D-01
 Coeff-Com:  0.181D+00 0.895D+00
 Coeff:      0.709D-03 0.101D-03 0.845D-03-0.168D-01-0.461D-01-0.141D-01
 Coeff:      0.181D+00 0.895D+00
 Gap=     0.230 Goal=   None    Shift=    0.000
 RMSDP=1.68D-07 MaxDP=8.94D-06 DE=-1.08D-09 OVMax= 1.31D-05

 Cycle   9  Pass 1  IDiag  1:
 RMSU=  6.59D-08    CP:  1.00D+00  9.18D-01  1.09D+00  1.28D+00  1.27D+00
                    CP:  1.49D+00  1.23D+00  1.15D+00
 E= -633.326659024854     Delta-E=       -0.000000000176 Rises=F Damp=F
 DIIS: error= 2.70D-07 at cycle   9 NSaved=   9.
 NSaved= 9 IEnMin= 9 EnMin= -633.326659024854     IErMin= 9 ErrMin= 2.70D-07
 ErrMax= 2.70D-07  0.00D+00 EMaxC= 1.00D-01 BMatC= 8.74D-12 BMatP= 6.54D-11
 IDIUse=1 WtCom= 1.00D+00 WtEn= 0.00D+00
 Coeff-Com:  0.123D-03 0.421D-03 0.151D-02 0.129D-02-0.144D-01-0.662D-01
 Coeff-Com: -0.332D-01 0.298D+00 0.812D+00
 Coeff:      0.123D-03 0.421D-03 0.151D-02 0.129D-02-0.144D-01-0.662D-01
 Coeff:     -0.332D-01 0.298D+00 0.812D+00
 Gap=     0.230 Goal=   None    Shift=    0.000
 RMSDP=4.96D-08 MaxDP=1.98D-06 DE=-1.76D-10 OVMax= 4.92D-06

 Cycle  10  Pass 1  IDiag  1:
 RMSU=  2.13D-08    CP:  1.00D+00  9.18D-01  1.09D+00  1.28D+00  1.28D+00
                    CP:  1.52D+00  1.29D+00  1.27D+00  1.22D+00
 E= -633.326659024880     Delta-E=       -0.000000000026 Rises=F Damp=F
 DIIS: error= 9.93D-08 at cycle  10 NSaved=  10.
 NSaved=10 IEnMin=10 EnMin= -633.326659024880     IErMin=10 ErrMin= 9.93D-08
 ErrMax= 9.93D-08  0.00D+00 EMaxC= 1.00D-01 BMatC= 1.69D-12 BMatP= 8.74D-12
 IDIUse=1 WtCom= 1.00D+00 WtEn= 0.00D+00
 Coeff-Com: -0.448D-04 0.188D-03 0.422D-03 0.301D-02 0.267D-03-0.263D-01
 Coeff-Com: -0.371D-01-0.734D-03 0.317D+00 0.744D+00
 Coeff:     -0.448D-04 0.188D-03 0.422D-03 0.301D-02 0.267D-03-0.263D-01
 Coeff:     -0.371D-01-0.734D-03 0.317D+00 0.744D+00
 Gap=     0.230 Goal=   None    Shift=    0.000
 RMSDP=2.27D-08 MaxDP=1.18D-06 DE=-2.59D-11 OVMax= 1.80D-06

 Cycle  11  Pass 1  IDiag  1:
 RMSU=  1.00D-08    CP:  1.00D+00  9.18D-01  1.09D+00  1.28D+00  1.28D+00
                    CP:  1.53D+00  1.32D+00  1.29D+00  1.41D+00  1.21D+00
 E= -633.326659024890     Delta-E=       -0.000000000010 Rises=F Damp=F
 DIIS: error= 4.62D-08 at cycle  11 NSaved=  11.
 NSaved=11 IEnMin=11 EnMin= -633.326659024890     IErMin=11 ErrMin= 4.62D-08
 ErrMax= 4.62D-08  0.00D+00 EMaxC= 1.00D-01 BMatC= 5.53D-13 BMatP= 1.69D-12
 IDIUse=1 WtCom= 1.00D+00 WtEn= 0.00D+00
 Coeff-Com: -0.449D-04 0.401D-04-0.137D-03 0.131D-02 0.318D-02 0.105D-02
 Coeff-Com: -0.101D-01-0.609D-01-0.113D-01 0.395D+00 0.682D+00
 Coeff:     -0.449D-04 0.401D-04-0.137D-03 0.131D-02 0.318D-02 0.105D-02
 Coeff:     -0.101D-01-0.609D-01-0.113D-01 0.395D+00 0.682D+00
 Gap=     0.230 Goal=   None    Shift=    0.000
 RMSDP=9.33D-09 MaxDP=4.18D-07 DE=-9.55D-12 OVMax= 7.63D-07

 Error on total polarization charges =  0.00923
 SCF Done:  E(RCAM-B3LYP) =  -633.326659025     A.U. after   11 cycles
            NFock= 11  Conv=0.93D-08     -V/T= 2.0041
 KE= 6.307337056861D+02 PE=-3.277232284066D+03 EE= 1.112568710850D+03
 Leave Link  502 at Fri Jan 23 22:46:45 2026, MaxMem=  2147483648 cpu:             690.3 elap:              43.8
 (Enter /data/home/wyx/g16/l601.exe)
 Copying SCF densities to generalized density rwf, IOpCl= 0 IROHF=0.

 **********************************************************************

            Population analysis using the SCF density.

 **********************************************************************

 Orbital symmetries:
       Occupied  (A) (A) (A) (A) (A) (A) (A) (A) (A) (A) (A) (A)
                 (A) (A) (A) (A) (A) (A) (A) (A) (A) (A) (A) (A)
                 (A) (A) (A) (A) (A) (A) (A) (A) (A) (A) (A) (A)
                 (A) (A) (A) (A) (A) (A) (A) (A) (A) (A) (A) (A)
                 (A) (A) (A) (A)
       Virtual   (A) (A) (A) (A) (A) (A) (A) (A) (A) (A) (A) (A)
                 (A) (A) (A) (A) (A) (A) (A) (A) (A) (A) (A) (A)
                 (A) (A) (A) (A) (A) (A) (A) (A) (A) (A) (A) (A)
                 (A) (A) (A) (A) (A) (A) (A) (A) (A) (A) (A) (A)
                 (A) (A) (A) (A) (A) (A) (A) (A) (A) (A) (A) (A)
                 (A) (A) (A) (A) (A) (A) (A) (A) (A) (A) (A) (A)
                 (A) (A) (A) (A) (A) (A) (A) (A) (A) (A) (A) (A)
                 (A) (A) (A) (A) (A) (A) (A) (A) (A) (A) (A) (A)
                 (A) (A) (A) (A) (A) (A) (A) (A) (A) (A) (A) (A)
                 (A) (A) (A) (A) (A) (A) (A) (A) (A) (A) (A) (A)
                 (A) (A) (A) (A) (A) (A) (A) (A) (A) (A) (A) (A)
                 (A) (A) (A) (A) (A) (A) (A) (A) (A) (A) (A) (A)
                 (A) (A) (A) (A) (A) (A) (A) (A) (A) (A) (A) (A)
                 (A) (A) (A) (A) (A) (A) (A) (A) (A) (A) (A) (A)
                 (A) (A) (A) (A) (A) (A) (A) (A) (A) (A) (A) (A)
                 (A) (A) (A) (A) (A) (A) (A) (A) (A) (A) (A) (A)
                 (A) (A) (A) (A) (A) (A) (A) (A) (A) (A) (A) (A)
                 (A) (A) (A) (A) (A) (A) (A) (A) (A) (A) (A) (A)
                 (A) (A) (A) (A) (A) (A) (A) (A) (A) (A) (A) (A)
                 (A) (A) (A) (A) (A) (A) (A) (A) (A) (A) (A) (A)
                 (A) (A) (A) (A) (A) (A) (A) (A) (A) (A) (A) (A)
                 (A) (A) (A) (A) (A) (A) (A) (A) (A) (A) (A) (A)
                 (A) (A) (A) (A) (A) (A) (A) (A) (A) (A) (A) (A)
                 (A) (A) (A) (A) (A) (A) (A) (A) (A) (A) (A) (A)
                 (A) (A) (A) (A) (A) (A) (A) (A) (A) (A) (A) (A)
                 (A) (A) (A) (A)
 The electronic state is 1-A.
 Alpha  occ. eigenvalues --  -19.17829 -19.17050 -14.44231 -10.33384 -10.32782
 Alpha  occ. eigenvalues --  -10.32261 -10.31595 -10.26017 -10.25086 -10.24763
 Alpha  occ. eigenvalues --  -10.24424 -10.24393 -10.24344 -10.23507  -1.11784
 Alpha  occ. eigenvalues --   -1.11231  -1.07805  -0.91274  -0.90241  -0.83877
 Alpha  occ. eigenvalues --   -0.82566  -0.81675  -0.78480  -0.73819  -0.71524
 Alpha  occ. eigenvalues --   -0.68558  -0.61539  -0.58202  -0.56851  -0.55090
 Alpha  occ. eigenvalues --   -0.54498  -0.53961  -0.52543  -0.51860  -0.50799
 Alpha  occ. eigenvalues --   -0.49872  -0.49492  -0.49184  -0.48615  -0.48023
 Alpha  occ. eigenvalues --   -0.46958  -0.45205  -0.45158  -0.43543  -0.43054
 Alpha  occ. eigenvalues --   -0.42295  -0.42060  -0.41762  -0.32656  -0.32169
 Alpha  occ. eigenvalues --   -0.31102  -0.25556
 Alpha virt. eigenvalues --   -0.02585   0.02635   0.06358   0.08228   0.08482
 Alpha virt. eigenvalues --    0.09943   0.10821   0.11890   0.12639   0.13532
 Alpha virt. eigenvalues --    0.14127   0.14862   0.15684   0.16260   0.16961
 Alpha virt. eigenvalues --    0.17603   0.17823   0.18073   0.18214   0.19252
 Alpha virt. eigenvalues --    0.19970   0.22174   0.22928   0.23527   0.23808
 Alpha virt. eigenvalues --    0.23901   0.24849   0.25689   0.26167   0.26669
 Alpha virt. eigenvalues --    0.27084   0.27781   0.28812   0.29104   0.30211
 Alpha virt. eigenvalues --    0.31763   0.32060   0.32591   0.33630   0.34533
 Alpha virt. eigenvalues --    0.35178   0.36092   0.36780   0.38239   0.38701
 Alpha virt. eigenvalues --    0.39951   0.41142   0.41638   0.42186   0.42680
 Alpha virt. eigenvalues --    0.44093   0.44605   0.45559   0.46141   0.46384
 Alpha virt. eigenvalues --    0.47308   0.47807   0.48221   0.48294   0.49101
 Alpha virt. eigenvalues --    0.49545   0.50636   0.50978   0.51490   0.51735
 Alpha virt. eigenvalues --    0.52854   0.53132   0.53481   0.54121   0.54320
 Alpha virt. eigenvalues --    0.54590   0.55761   0.56235   0.56676   0.58424
 Alpha virt. eigenvalues --    0.58685   0.59298   0.61016   0.61196   0.62948
 Alpha virt. eigenvalues --    0.63631   0.65786   0.66402   0.66582   0.68004
 Alpha virt. eigenvalues --    0.68695   0.70085   0.71288   0.72208   0.72809
 Alpha virt. eigenvalues --    0.73316   0.74091   0.74849   0.76013   0.77936
 Alpha virt. eigenvalues --    0.78700   0.79961   0.82661   0.85404   0.86111
 Alpha virt. eigenvalues --    0.90018   0.94055   1.00741   1.02373   1.23664
 Alpha virt. eigenvalues --    1.25273   1.27114   1.28037   1.29505   1.31318
 Alpha virt. eigenvalues --    1.32714   1.32977   1.34113   1.34988   1.36129
 Alpha virt. eigenvalues --    1.36584   1.37531   1.38365   1.39114   1.39971
 Alpha virt. eigenvalues --    1.40000   1.40587   1.40940   1.41485   1.41844
 Alpha virt. eigenvalues --    1.43527   1.44142   1.44416   1.45250   1.47335
 Alpha virt. eigenvalues --    1.48206   1.49560   1.49763   1.50460   1.51174
 Alpha virt. eigenvalues --    1.51705   1.52551   1.53228   1.54871   1.58044
 Alpha virt. eigenvalues --    1.58622   1.60726   1.60783   1.61430   1.62482
 Alpha virt. eigenvalues --    1.62733   1.63459   1.64240   1.64851   1.65906
 Alpha virt. eigenvalues --    1.66873   1.67275   1.67664   1.68402   1.68470
 Alpha virt. eigenvalues --    1.68932   1.69962   1.70327   1.71646   1.72385
 Alpha virt. eigenvalues --    1.73825   1.75303   1.76251   1.76689   1.78892
 Alpha virt. eigenvalues --    1.80793   1.83077   1.84241   1.86049   1.86634
 Alpha virt. eigenvalues --    1.86908   1.87817   1.88664   1.88924   1.90687
 Alpha virt. eigenvalues --    1.91311   1.94687   1.95246   1.98802   1.99854
 Alpha virt. eigenvalues --    2.01287   2.03934   2.05124   2.06803   2.09721
 Alpha virt. eigenvalues --    2.11142   2.12699   2.15066   2.17342   2.19746
 Alpha virt. eigenvalues --    2.20326   2.21377   2.22008   2.23039   2.26236
 Alpha virt. eigenvalues --    2.27293   2.27607   2.29352   2.31228   2.32141
 Alpha virt. eigenvalues --    2.33705   2.34573   2.36841   2.37702   2.38481
 Alpha virt. eigenvalues --    2.39631   2.40384   2.41724   2.43413   2.45054
 Alpha virt. eigenvalues --    2.46177   2.47938   2.50191   2.50785   2.51703
 Alpha virt. eigenvalues --    2.52274   2.54048   2.55073   2.56822   2.58238
 Alpha virt. eigenvalues --    2.59059   2.60601   2.61547   2.62615   2.63093
 Alpha virt. eigenvalues --    2.64658   2.65923   2.67003   2.67420   2.68867
 Alpha virt. eigenvalues --    2.71877   2.72075   2.73140   2.74073   2.75476
 Alpha virt. eigenvalues --    2.75983   2.76729   2.77437   2.78054   2.79475
 Alpha virt. eigenvalues --    2.80759   2.81885   2.83434   2.83921   2.84521
 Alpha virt. eigenvalues --    2.85665   2.86451   2.88383   2.89998   2.91929
 Alpha virt. eigenvalues --    2.97723   2.99935   3.00858   3.05301   3.10849
 Alpha virt. eigenvalues --    3.12422   3.15716   3.17080   3.18074   3.21161
 Alpha virt. eigenvalues --    3.21518   3.23170   3.24661   3.26192   3.27256
 Alpha virt. eigenvalues --    3.27720   3.29994   3.33506   3.34703   3.36666
 Alpha virt. eigenvalues --    3.37482   3.38849   3.39950   3.40391   3.42042
 Alpha virt. eigenvalues --    3.42501   3.44731   3.45546   3.47430   3.48285
 Alpha virt. eigenvalues --    3.49480   3.49716   3.55381   3.58628   3.60071
 Alpha virt. eigenvalues --    3.60828   3.90697   4.00309   4.34054   4.36612
 Alpha virt. eigenvalues --   21.65382  21.80296  22.08477  22.10955  22.11936
 Alpha virt. eigenvalues --   22.15091  22.15340  22.18881  22.20488  22.24921
 Alpha virt. eigenvalues --   22.29480  31.92585  43.63469  43.66183
          Condensed to atoms (all electrons):
               1          2          3          4          5          6
     1  O    7.934805   0.000000  -0.000217   0.000019   0.017185   0.013682
     2  O    0.000000   7.973741   0.000439   0.000025  -0.198550   0.001086
     3  N   -0.000217   0.000439   6.382725   0.372061  -0.115872   0.328411
     4  H    0.000019   0.000025   0.372061   0.410646   0.016842  -0.046907
     5  C    0.017185  -0.198550  -0.115872   0.016842   7.021793  -0.074060
     6  C    0.013682   0.001086   0.328411  -0.046907  -0.074060   5.597448
     7  C   -0.000310  -0.039904   0.385038  -0.038338   0.420355  -0.103422
     8  C   -0.000382   0.710913   0.004578  -0.000745  -0.273475   0.028997
     9  C   -0.019268   0.021322   0.012835  -0.000049  -0.564421  -0.085952
    10  H    0.013012  -0.000017  -0.001385   0.000019  -0.117138   0.027220
    11  H    0.005010   0.000117   0.003816   0.000023  -0.033815  -0.018019
    12  C   -0.224439  -0.002575  -0.088075   0.014909   0.172217  -0.136759
    13  C    0.716714  -0.000023   0.001013   0.000456   0.077588   0.159129
    14  C   -0.000007  -0.007602  -0.034841  -0.009858  -0.080806   0.011122
    15  H   -0.000000   0.004286   0.004189   0.001714   0.018723   0.006480
    16  H   -0.000000   0.001959   0.000682   0.000778  -0.007664  -0.000975
    17  H   -0.000000   0.002207  -0.002672   0.000927  -0.005417  -0.001784
    18  C    0.000044  -0.105092  -0.000569   0.000020  -0.269077   0.000479
    19  H   -0.000003   0.008690   0.000003  -0.000001   0.024310   0.000027
    20  H    0.000100   0.003790   0.000122   0.000001   0.044001  -0.001172
    21  H    0.000010   0.000986   0.000013  -0.000001   0.003767   0.000233
    22  C   -0.106871   0.000000  -0.000078   0.000120   0.004175  -0.012714
    23  H    0.001316   0.000000  -0.000016  -0.000015  -0.000047   0.010275
    24  H    0.004841  -0.000000   0.000019  -0.000053  -0.000620  -0.031335
    25  H    0.007391   0.000000   0.000029  -0.000002  -0.000152  -0.001171
    26  C    0.000861   0.000006  -0.028587  -0.006228   0.000373   0.178206
    27  H   -0.000049  -0.000000  -0.002468   0.000449   0.000403  -0.035286
    28  H   -0.000244  -0.000000   0.002292   0.000834  -0.000017  -0.046507
    29  H    0.000025  -0.000000   0.001264   0.001325  -0.000430  -0.049515
               7          8          9         10         11         12
     1  O   -0.000310  -0.000382  -0.019268   0.013012   0.005010  -0.224439
     2  O   -0.039904   0.710913   0.021322  -0.000017   0.000117  -0.002575
     3  N    0.385038   0.004578   0.012835  -0.001385   0.003816  -0.088075
     4  H   -0.038338  -0.000745  -0.000049   0.000019   0.000023   0.014909
     5  C    0.420355  -0.273475  -0.564421  -0.117138  -0.033815   0.172217
     6  C   -0.103422   0.028997  -0.085952   0.027220  -0.018019  -0.136759
     7  C    5.401902  -0.204111  -0.185251   0.018236  -0.005790   0.006463
     8  C   -0.204111   5.364954   0.128618  -0.009649  -0.003693  -0.038679
     9  C   -0.185251   0.128618   6.318262   0.537735   0.396440  -0.042067
    10  H    0.018236  -0.009649   0.537735   0.514337  -0.039191  -0.109149
    11  H   -0.005790  -0.003693   0.396440  -0.039191   0.557060  -0.014588
    12  C    0.006463  -0.038679  -0.042067  -0.109149  -0.014588   7.307242
    13  C    0.014339  -0.007125  -0.259373  -0.001514  -0.002157  -0.429562
    14  C    0.271632  -0.035061   0.009596   0.000564  -0.001220  -0.003412
    15  H   -0.079224   0.005552   0.000237  -0.000004   0.000058  -0.001344
    16  H   -0.027202  -0.007246  -0.000496  -0.000055   0.000192   0.000017
    17  H   -0.022453  -0.002085   0.000752   0.000056  -0.000066   0.000707
    18  C    0.000923   0.320491   0.003429   0.008304  -0.010258  -0.003465
    19  H    0.000344  -0.052907  -0.000805   0.000592  -0.000004  -0.000182
    20  H    0.002179  -0.066186  -0.010150  -0.005935   0.002510   0.006993
    21  H    0.000319  -0.024749  -0.009219  -0.001882   0.000870  -0.003176
    22  C    0.000033  -0.000067   0.005244   0.000438   0.002040  -0.262485
    23  H    0.000009   0.000003  -0.002147  -0.000121   0.000158  -0.010907
    24  H   -0.000003  -0.000004   0.003322  -0.000018  -0.000152   0.066729
    25  H    0.000008   0.000003   0.000269  -0.000111  -0.000056   0.022083
    26  C    0.002886   0.000610   0.021354   0.000053  -0.000738  -0.079160
    27  H   -0.000793  -0.000010  -0.000255   0.000043  -0.000019  -0.018793
    28  H   -0.000740   0.000002  -0.000508   0.000007  -0.000105  -0.007003
    29  H    0.003405  -0.000006  -0.000568  -0.000012   0.000099   0.022771
              13         14         15         16         17         18
     1  O    0.716714  -0.000007  -0.000000  -0.000000  -0.000000   0.000044
     2  O   -0.000023  -0.007602   0.004286   0.001959   0.002207  -0.105092
     3  N    0.001013  -0.034841   0.004189   0.000682  -0.002672  -0.000569
     4  H    0.000456  -0.009858   0.001714   0.000778   0.000927   0.000020
     5  C    0.077588  -0.080806   0.018723  -0.007664  -0.005417  -0.269077
     6  C    0.159129   0.011122   0.006480  -0.000975  -0.001784   0.000479
     7  C    0.014339   0.271632  -0.079224  -0.027202  -0.022453   0.000923
     8  C   -0.007125  -0.035061   0.005552  -0.007246  -0.002085   0.320491
     9  C   -0.259373   0.009596   0.000237  -0.000496   0.000752   0.003429
    10  H   -0.001514   0.000564  -0.000004  -0.000055   0.000056   0.008304
    11  H   -0.002157  -0.001220   0.000058   0.000192  -0.000066  -0.010258
    12  C   -0.429562  -0.003412  -0.001344   0.000017   0.000707  -0.003465
    13  C    5.494210   0.000013  -0.000029  -0.000003  -0.000013   0.000783
    14  C    0.000013   5.052582   0.388101   0.421199   0.408333   0.001540
    15  H   -0.000029   0.388101   0.579964  -0.027865  -0.026261   0.000272
    16  H   -0.000003   0.421199  -0.027865   0.509556  -0.026630  -0.000202
    17  H   -0.000013   0.408333  -0.026261  -0.026630   0.510250  -0.000010
    18  C    0.000783   0.001540   0.000272  -0.000202  -0.000010   5.343929
    19  H   -0.000013   0.000058  -0.000005   0.000032  -0.000027   0.393210
    20  H    0.000619   0.000051  -0.000016  -0.000036   0.000004   0.380791
    21  H   -0.000100  -0.000256  -0.000006   0.000020  -0.000008   0.397388
    22  C    0.287327  -0.000021   0.000002  -0.000000   0.000000   0.000028
    23  H   -0.023163  -0.000001   0.000000  -0.000000   0.000000  -0.000002
    24  H   -0.094436   0.000001   0.000000   0.000000   0.000000   0.000003
    25  H   -0.039281   0.000000   0.000000   0.000000  -0.000000  -0.000001
    26  C   -0.054921   0.001131   0.000135   0.000048  -0.000143   0.000020
    27  H    0.006435  -0.000112  -0.000001   0.000004  -0.000009  -0.000001
    28  H   -0.004177   0.000087  -0.000011  -0.000001   0.000001  -0.000000
    29  H   -0.000819  -0.000246   0.000119  -0.000004   0.000002   0.000000
              19         20         21         22         23         24
     1  O   -0.000003   0.000100   0.000010  -0.106871   0.001316   0.004841
     2  O    0.008690   0.003790   0.000986   0.000000   0.000000  -0.000000
     3  N    0.000003   0.000122   0.000013  -0.000078  -0.000016   0.000019
     4  H   -0.000001   0.000001  -0.000001   0.000120  -0.000015  -0.000053
     5  C    0.024310   0.044001   0.003767   0.004175  -0.000047  -0.000620
     6  C    0.000027  -0.001172   0.000233  -0.012714   0.010275  -0.031335
     7  C    0.000344   0.002179   0.000319   0.000033   0.000009  -0.000003
     8  C   -0.052907  -0.066186  -0.024749  -0.000067   0.000003  -0.000004
     9  C   -0.000805  -0.010150  -0.009219   0.005244  -0.002147   0.003322
    10  H    0.000592  -0.005935  -0.001882   0.000438  -0.000121  -0.000018
    11  H   -0.000004   0.002510   0.000870   0.002040   0.000158  -0.000152
    12  C   -0.000182   0.006993  -0.003176  -0.262485  -0.010907   0.066729
    13  C   -0.000013   0.000619  -0.000100   0.287327  -0.023163  -0.094436
    14  C    0.000058   0.000051  -0.000256  -0.000021  -0.000001   0.000001
    15  H   -0.000005  -0.000016  -0.000006   0.000002   0.000000   0.000000
    16  H    0.000032  -0.000036   0.000020  -0.000000  -0.000000   0.000000
    17  H   -0.000027   0.000004  -0.000008   0.000000   0.000000   0.000000
    18  C    0.393210   0.380791   0.397388   0.000028  -0.000002   0.000003
    19  H    0.507295  -0.023168  -0.010121  -0.000000   0.000000   0.000000
    20  H   -0.023168   0.536517  -0.025031   0.000021  -0.000000  -0.000000
    21  H   -0.010121  -0.025031   0.498807  -0.000013   0.000000  -0.000000
    22  C   -0.000000   0.000021  -0.000013   5.426931   0.401087   0.396933
    23  H    0.000000  -0.000000   0.000000   0.401087   0.495916  -0.027507
    24  H    0.000000  -0.000000  -0.000000   0.396933  -0.027507   0.544319
    25  H   -0.000000  -0.000000   0.000000   0.384337  -0.007918  -0.022162
    26  C    0.000000  -0.000016   0.000004  -0.029762  -0.013315   0.016306
    27  H    0.000000  -0.000000  -0.000000  -0.010839   0.001048  -0.001593
    28  H   -0.000000  -0.000000   0.000000   0.007055  -0.000401  -0.009157
    29  H    0.000000   0.000000  -0.000000   0.001957   0.000206   0.000682
              25         26         27         28         29
     1  O    0.007391   0.000861  -0.000049  -0.000244   0.000025
     2  O    0.000000   0.000006  -0.000000  -0.000000  -0.000000
     3  N    0.000029  -0.028587  -0.002468   0.002292   0.001264
     4  H   -0.000002  -0.006228   0.000449   0.000834   0.001325
     5  C   -0.000152   0.000373   0.000403  -0.000017  -0.000430
     6  C   -0.001171   0.178206  -0.035286  -0.046507  -0.049515
     7  C    0.000008   0.002886  -0.000793  -0.000740   0.003405
     8  C    0.000003   0.000610  -0.000010   0.000002  -0.000006
     9  C    0.000269   0.021354  -0.000255  -0.000508  -0.000568
    10  H   -0.000111   0.000053   0.000043   0.000007  -0.000012
    11  H   -0.000056  -0.000738  -0.000019  -0.000105   0.000099
    12  C    0.022083  -0.079160  -0.018793  -0.007003   0.022771
    13  C   -0.039281  -0.054921   0.006435  -0.004177  -0.000819
    14  C    0.000000   0.001131  -0.000112   0.000087  -0.000246
    15  H    0.000000   0.000135  -0.000001  -0.000011   0.000119
    16  H    0.000000   0.000048   0.000004  -0.000001  -0.000004
    17  H   -0.000000  -0.000143  -0.000009   0.000001   0.000002
    18  C   -0.000001   0.000020  -0.000001  -0.000000   0.000000
    19  H   -0.000000   0.000000   0.000000  -0.000000   0.000000
    20  H   -0.000000  -0.000016  -0.000000  -0.000000   0.000000
    21  H    0.000000   0.000004  -0.000000   0.000000  -0.000000
    22  C    0.384337  -0.029762  -0.010839   0.007055   0.001957
    23  H   -0.007918  -0.013315   0.001048  -0.000401   0.000206
    24  H   -0.022162   0.016306  -0.001593  -0.009157   0.000682
    25  H    0.493823   0.001862   0.000114   0.000761  -0.000041
    26  C    0.001862   5.256186   0.428887   0.428547   0.390574
    27  H    0.000114   0.428887   0.483020  -0.026614  -0.018407
    28  H    0.000761   0.428547  -0.026614   0.510849  -0.026188
    29  H   -0.000041   0.390574  -0.018407  -0.026188   0.518654
 Mulliken charges:
               1
     1  O   -0.363224
     2  O   -0.375805
     3  N   -0.224746
     4  H    0.281032
     5  C   -0.080168
     6  C    0.282783
     7  C    0.179466
     8  C    0.161460
     9  C   -0.278885
    10  H    0.165566
    11  H    0.161476
    12  C   -0.144308
    13  C    0.158084
    14  C   -0.392567
    15  H    0.124934
    16  H    0.163891
    17  H    0.164338
    18  C   -0.462979
    19  H    0.152676
    20  H    0.154012
    21  H    0.172144
    22  C   -0.494878
    23  H    0.175541
    24  H    0.153885
    25  H    0.160215
    26  C   -0.515179
    27  H    0.194848
    28  H    0.171237
    29  H    0.155153
 Sum of Mulliken charges =  -0.00000
 Mulliken charges with hydrogens summed into heavy atoms:
               1
     1  O   -0.363224
     2  O   -0.375805
     3  N    0.056285
     5  C   -0.080168
     6  C    0.282783
     7  C    0.179466
     8  C    0.161460
     9  C    0.048157
    12  C   -0.144308
    13  C    0.158084
    14  C    0.060596
    18  C    0.015853
    22  C   -0.005237
    26  C    0.006059
 Electronic spatial extent (au):  <R**2>=           3191.4009
 Charge=              0.0000 electrons
 Dipole moment (field-independent basis, Debye):
    X=              3.8606    Y=              7.2540    Z=             -0.1542  Tot=              8.2187
 Quadrupole moment (field-independent basis, Debye-Ang):
   XX=            -98.3480   YY=            -78.4855   ZZ=            -84.8999
   XY=             12.2903   XZ=              4.8744   YZ=             -1.8037
 Traceless Quadrupole moment (field-independent basis, Debye-Ang):
   XX=            -11.1035   YY=              8.7589   ZZ=              2.3446
   XY=             12.2903   XZ=              4.8744   YZ=             -1.8037
 Octapole moment (field-independent basis, Debye-Ang**2):
  XXX=            106.4778  YYY=             62.7179  ZZZ=              1.6048  XYY=            -34.3665
  XXY=             30.4470  XXZ=             -8.1137  XZZ=              1.4298  YZZ=             -1.4440
  YYZ=              3.6995  XYZ=             -5.1956
 Hexadecapole moment (field-independent basis, Debye-Ang**3):
 XXXX=          -3047.3355 YYYY=          -1281.9797 ZZZZ=           -150.6884 XXXY=             34.0058
 XXXZ=             55.1287 YYYX=             86.4999 YYYZ=            -20.6890 ZZZX=             -3.2256
 ZZZY=              4.4035 XXYY=           -691.8627 XXZZ=           -483.4548 YYZZ=           -243.5051
 XXYZ=             -8.0095 YYXZ=              7.8820 ZZXY=             -0.9735
 N-N= 9.006032085051D+02 E-N=-3.277232280304D+03  KE= 6.307337056861D+02
 No NMR shielding tensors so no spin-rotation constants.
 Leave Link  601 at Fri Jan 23 22:46:45 2026, MaxMem=  2147483648 cpu:               1.8 elap:               0.1
 (Enter /data/home/wyx/g16/l9999.exe)
 1\1\GINC-CN012\SP\RCAM-B3LYP\TZVP\C11H15N1O2\WYX\23-Jan-2026\0\\#p CAM
 -B3LYP TZVP em=gd3bj scrf=(Solvent=TetraHydroFuran,NonEquilibrium=Read
 ) Geom=Check Guess=Read\\Title Card Required\\0,1\O,0,2.83728,-1.56799
 9,0.10986\O,0,-3.423925,-1.631119,-0.003771\N,0,-0.645845,1.513416,-0.
 299757\H,0,-0.955941,2.471832,-0.352195\C,0,-1.241712,-0.759173,-0.215
 224\C,0,0.693005,1.312111,-0.075837\C,0,-1.620925,0.558075,-0.272713\C
 ,0,-2.219571,-1.834676,-0.130256\C,0,0.210436,-1.100856,-0.29372\H,0,0
 .445614,-1.932095,0.372715\H,0,0.451476,-1.50274,-1.289925\C,0,1.14995
 8,0.023988,0.006447\C,0,2.514862,-0.396705,0.30537\C,0,-3.009506,1.094
 465,-0.316623\H,0,-3.011495,2.161633,-0.530987\H,0,-3.604571,0.585998,
 -1.067194\H,0,-3.517688,0.936001,0.630868\C,0,-1.723892,-3.253853,-0.1
 88795\H,0,-2.560126,-3.924674,-0.349755\H,0,-0.988069,-3.407961,-0.972
 958\H,0,-1.246045,-3.529866,0.749934\C,0,3.544574,0.537713,0.89243\H,0
 ,4.056132,1.087352,0.100054\H,0,3.121944,1.258039,1.587977\H,0,4.28584
 5,-0.070162,1.406075\C,0,1.467762,2.58493,0.030338\H,0,1.591885,2.8944
 03,1.067865\H,0,2.451681,2.502089,-0.414331\H,0,0.946855,3.389833,-0.4
 85892\\Version=ES64L-G16RevA.03\State=1-A\HF=-633.326659\RMSD=9.325e-0
 9\Dipole=0.4794332,3.1971171,-0.0643286\Quadrupole=-13.0531886,10.6277
 795,2.425409,2.4587248,2.1360047,0.0765524\PG=C01 [X(C11H15N1O2)]\\@


 TRUST EVERYONE, BUT CUT THE CARDS.
 Job cpu time:       0 days  0 hours 11 minutes 40.5 seconds.
 Elapsed time:       0 days  0 hours  0 minutes 44.6 seconds.
 File lengths (MBytes):  RWF=    341 Int=      0 D2E=      0 Chk=     67 Scr=      1
 Normal termination of Gaussian 16 at Fri Jan 23 22:46:46 2026.
