 Entering Gaussian System, Link 0=g16
 Input=DDL-S2-cLR-gs-5.gjf
 Output=DDL-S2-cLR-gs-5.log
 Initial command:
 /data/home/wyx/g16/l1.exe "/scr/tmp/wyx/13106/Gau-1985323.inp" -scrdir="/scr/tmp/wyx/13106/"
 Entering Link 1 = /data/home/wyx/g16/l1.exe PID=   1985324.
  
 Copyright (c) 1988,1990,1992,1993,1995,1998,2003,2009,2016,
            Gaussian, Inc.  All Rights Reserved.
  
 This is part of the Gaussian(R) 16 program.  It is based on
 the Gaussian(R) 09 system (copyright 2009, Gaussian, Inc.),
 the Gaussian(R) 03 system (copyright 2003, Gaussian, Inc.),
 the Gaussian(R) 98 system (copyright 1998, Gaussian, Inc.),
 the Gaussian(R) 94 system (copyright 1995, Gaussian, Inc.),
 the Gaussian 92(TM) system (copyright 1992, Gaussian, Inc.),
 the Gaussian 90(TM) system (copyright 1990, Gaussian, Inc.),
 the Gaussian 88(TM) system (copyright 1988, Gaussian, Inc.),
 the Gaussian 86(TM) system (copyright 1986, Carnegie Mellon
 University), and the Gaussian 82(TM) system (copyright 1983,
 Carnegie Mellon University). Gaussian is a federally registered
 trademark of Gaussian, Inc.
  
 This software contains proprietary and confidential information,
 including trade secrets, belonging to Gaussian, Inc.
  
 This software is provided under written license and may be
 used, copied, transmitted, or stored only in accord with that
 written license.
  
 The following legend is applicable only to US Government
 contracts under FAR:
  
                    RESTRICTED RIGHTS LEGEND
  
 Use, reproduction and disclosure by the US Government is
 subject to restrictions as set forth in subparagraphs (a)
 and (c) of the Commercial Computer Software - Restricted
 Rights clause in FAR 52.227-19.
  
 Gaussian, Inc.
 340 Quinnipiac St., Bldg. 40, Wallingford CT 06492
  
  
 ---------------------------------------------------------------
 Warning -- This program may not be used in any manner that
 competes with the business of Gaussian, Inc. or will provide
 assistance to any competitor of Gaussian, Inc.  The licensee
 of this program is prohibited from giving any competitor of
 Gaussian, Inc. access to this program.  By using this program,
 the user acknowledges that Gaussian, Inc. is engaged in the
 business of creating and licensing software in the field of
 computational chemistry and represents and warrants to the
 licensee that it is not a competitor of Gaussian, Inc. and that
 it will not use this program in any manner prohibited above.
 ---------------------------------------------------------------
  

 Cite this work as:
 Gaussian 16, Revision A.03,
 M. J. Frisch, G. W. Trucks, H. B. Schlegel, G. E. Scuseria, 
 M. A. Robb, J. R. Cheeseman, G. Scalmani, V. Barone, 
 G. A. Petersson, H. Nakatsuji, X. Li, M. Caricato, A. V. Marenich, 
 J. Bloino, B. G. Janesko, R. Gomperts, B. Mennucci, H. P. Hratchian, 
 J. V. Ortiz, A. F. Izmaylov, J. L. Sonnenberg, D. Williams-Young, 
 F. Ding, F. Lipparini, F. Egidi, J. Goings, B. Peng, A. Petrone, 
 T. Henderson, D. Ranasinghe, V. G. Zakrzewski, J. Gao, N. Rega, 
 G. Zheng, W. Liang, M. Hada, M. Ehara, K. Toyota, R. Fukuda, 
 J. Hasegawa, M. Ishida, T. Nakajima, Y. Honda, O. Kitao, H. Nakai, 
 T. Vreven, K. Throssell, J. A. Montgomery, Jr., J. E. Peralta, 
 F. Ogliaro, M. J. Bearpark, J. J. Heyd, E. N. Brothers, K. N. Kudin, 
 V. N. Staroverov, T. A. Keith, R. Kobayashi, J. Normand, 
 K. Raghavachari, A. P. Rendell, J. C. Burant, S. S. Iyengar, 
 J. Tomasi, M. Cossi, J. M. Millam, M. Klene, C. Adamo, R. Cammi, 
 J. W. Ochterski, R. L. Martin, K. Morokuma, O. Farkas, 
 J. B. Foresman, and D. J. Fox, Gaussian, Inc., Wallingford CT, 2016.
 
 ******************************************
 Gaussian 16:  ES64L-G16RevA.03 25-Dec-2016
                23-Jan-2026 
 ******************************************
 %nprocshared=16
 Will use up to   16 processors via shared memory.
 %mem=16GB
 %oldchk=DDL-S2-cLR-5.chk
 %chk=DDL-S2-cLR-gs-5.chk
 Copying data from "DDL-S2-cLR-5.chk" to current chk file "DDL-S2-cLR-gs-5.chk"
 IOpt=  2 FromEx=T IUOpen= 4 IOptOp= 5 NList=   0 IFRang= 0 IUIn= 4 IUOut= 2.
 ----------------------------------------------------------------------
 #p CAM-B3LYP TZVP em=gd3bj scrf=(Solvent=TetraHydroFuran,NonEquilibriu
 m=Read) Geom=Check Guess=Read
 ----------------------------------------------------------------------
 1/29=2,38=1,172=1/1;
 2/12=2,40=1/2;
 3/5=19,7=101,11=2,14=-4,25=1,30=1,70=6002201,72=20,74=-40,116=-2,124=41/1,2,3;
 4/5=1/1;
 5/5=2,38=6,53=20/2;
 6/7=2,8=2,9=2,10=2,28=1/1;
 99/5=1,9=1/99;
 Leave Link    1 at Fri Jan 23 22:38:03 2026, MaxMem=  2147483648 cpu:               0.8 elap:               0.1
 (Enter /data/home/wyx/g16/l101.exe)
 -------------------
 Title Card Required
 -------------------
 Structure from the checkpoint file:  "DDL-S2-cLR-gs-5.chk"
 Charge =  0 Multiplicity = 1
 Z-Matrix found in chk file.
 O,0,2.839128,-1.571888,0.058447
 O,0,-3.428037,-1.643708,-0.101917
 N,0,-0.659458,1.516626,-0.218341
 H,0,-0.970844,2.476567,-0.2687
 C,0,-1.246582,-0.761572,-0.205119
 C,0,0.68298,1.328286,-0.038606
 C,0,-1.633437,0.572675,-0.248102
 C,0,-2.214134,-1.842978,-0.167745
 C,0,0.198902,-1.087745,-0.219652
 H,0,0.417699,-1.901052,0.479174
 H,0,0.467738,-1.545359,-1.188017
 C,0,1.148158,0.025401,0.031418
 C,0,2.517151,-0.400414,0.280096
 C,0,-3.021638,1.102149,-0.339753
 H,0,-3.020442,2.182453,-0.476102
 H,0,-3.561562,0.649639,-1.165736
 H,0,-3.590745,0.871134,0.5566
 C,0,-1.713485,-3.263187,-0.186384
 H,0,-2.529922,-3.926923,-0.449277
 H,0,-0.893927,-3.420164,-0.881274
 H,0,-1.354185,-3.552146,0.800821
 C,0,3.560174,0.530548,0.849213
 H,0,4.067644,1.072814,0.048747
 H,0,3.151916,1.257443,1.546529
 H,0,4.303182,-0.07953,1.358203
 C,0,1.468726,2.595532,0.026709
 H,0,1.680698,2.895693,1.053155
 H,0,2.415694,2.507947,-0.494661
 H,0,0.918606,3.411758,-0.439726
 Recover connectivity data from disk.
 ITRead=  0  0  0  0  0  0  0  0  0  0  0  0  0  0  0  0  0  0  0  0
 ITRead=  0  0  0  0  0  0  0  0  0
 MicOpt= -1 -1 -1 -1 -1 -1 -1 -1 -1 -1 -1 -1 -1 -1 -1 -1 -1 -1 -1 -1
 MicOpt= -1 -1 -1 -1 -1 -1 -1 -1 -1
 NAtoms=     29 NQM=       29 NQMF=       0 NMMI=      0 NMMIF=      0
                NMic=       0 NMicF=      0.
                    Isotopes and Nuclear Properties:
 (Nuclear quadrupole moments (NQMom) in fm**2, nuclear magnetic moments (NMagM)
  in nuclear magnetons)

  Atom         1           2           3           4           5           6           7           8           9          10
 IAtWgt=          16          16          14           1          12          12          12          12          12           1
 AtmWgt=  15.9949146  15.9949146  14.0030740   1.0078250  12.0000000  12.0000000  12.0000000  12.0000000  12.0000000   1.0078250
 NucSpn=           0           0           2           1           0           0           0           0           0           1
 AtZEff=   5.6000000   5.6000000   4.5500000   1.0000000   3.6000000   3.6000000   3.6000000   3.6000000   3.6000000   1.0000000
 NQMom=    0.0000000   0.0000000   2.0440000   0.0000000   0.0000000   0.0000000   0.0000000   0.0000000   0.0000000   0.0000000
 NMagM=    0.0000000   0.0000000   0.4037610   2.7928460   0.0000000   0.0000000   0.0000000   0.0000000   0.0000000   2.7928460
 AtZNuc=   8.0000000   8.0000000   7.0000000   1.0000000   6.0000000   6.0000000   6.0000000   6.0000000   6.0000000   1.0000000

  Atom        11          12          13          14          15          16          17          18          19          20
 IAtWgt=           1          12          12          12           1           1           1          12           1           1
 AtmWgt=   1.0078250  12.0000000  12.0000000  12.0000000   1.0078250   1.0078250   1.0078250  12.0000000   1.0078250   1.0078250
 NucSpn=           1           0           0           0           1           1           1           0           1           1
 AtZEff=   1.0000000   3.6000000   3.6000000   3.6000000   1.0000000   1.0000000   1.0000000   3.6000000   1.0000000   1.0000000
 NQMom=    0.0000000   0.0000000   0.0000000   0.0000000   0.0000000   0.0000000   0.0000000   0.0000000   0.0000000   0.0000000
 NMagM=    2.7928460   0.0000000   0.0000000   0.0000000   2.7928460   2.7928460   2.7928460   0.0000000   2.7928460   2.7928460
 AtZNuc=   1.0000000   6.0000000   6.0000000   6.0000000   1.0000000   1.0000000   1.0000000   6.0000000   1.0000000   1.0000000

  Atom        21          22          23          24          25          26          27          28          29
 IAtWgt=           1          12           1           1           1          12           1           1           1
 AtmWgt=   1.0078250  12.0000000   1.0078250   1.0078250   1.0078250  12.0000000   1.0078250   1.0078250   1.0078250
 NucSpn=           1           0           1           1           1           0           1           1           1
 AtZEff=   1.0000000   3.6000000   1.0000000   1.0000000   1.0000000   3.6000000   1.0000000   1.0000000   1.0000000
 NQMom=    0.0000000   0.0000000   0.0000000   0.0000000   0.0000000   0.0000000   0.0000000   0.0000000   0.0000000
 NMagM=    2.7928460   0.0000000   2.7928460   2.7928460   2.7928460   0.0000000   2.7928460   2.7928460   2.7928460
 AtZNuc=   1.0000000   6.0000000   1.0000000   1.0000000   1.0000000   6.0000000   1.0000000   1.0000000   1.0000000
 Leave Link  101 at Fri Jan 23 22:38:06 2026, MaxMem=  2147483648 cpu:               0.8 elap:               0.1
 (Enter /data/home/wyx/g16/l202.exe)
                          Input orientation:                          
 ---------------------------------------------------------------------
 Center     Atomic      Atomic             Coordinates (Angstroms)
 Number     Number       Type             X           Y           Z
 ---------------------------------------------------------------------
      1          8           0        2.839128   -1.571888    0.058447
      2          8           0       -3.428037   -1.643708   -0.101917
      3          7           0       -0.659458    1.516626   -0.218341
      4          1           0       -0.970844    2.476567   -0.268700
      5          6           0       -1.246582   -0.761572   -0.205119
      6          6           0        0.682980    1.328286   -0.038606
      7          6           0       -1.633437    0.572675   -0.248102
      8          6           0       -2.214134   -1.842978   -0.167745
      9          6           0        0.198902   -1.087745   -0.219652
     10          1           0        0.417699   -1.901052    0.479174
     11          1           0        0.467738   -1.545359   -1.188017
     12          6           0        1.148158    0.025401    0.031418
     13          6           0        2.517151   -0.400414    0.280096
     14          6           0       -3.021638    1.102149   -0.339753
     15          1           0       -3.020442    2.182453   -0.476102
     16          1           0       -3.561562    0.649639   -1.165736
     17          1           0       -3.590745    0.871134    0.556600
     18          6           0       -1.713485   -3.263187   -0.186384
     19          1           0       -2.529922   -3.926923   -0.449277
     20          1           0       -0.893927   -3.420164   -0.881274
     21          1           0       -1.354185   -3.552146    0.800821
     22          6           0        3.560174    0.530548    0.849213
     23          1           0        4.067644    1.072814    0.048747
     24          1           0        3.151916    1.257443    1.546529
     25          1           0        4.303182   -0.079530    1.358203
     26          6           0        1.468726    2.595532    0.026709
     27          1           0        1.680698    2.895693    1.053155
     28          1           0        2.415694    2.507947   -0.494661
     29          1           0        0.918606    3.411758   -0.439726
 ---------------------------------------------------------------------
                    Distance matrix (angstroms):
                    1          2          3          4          5
     1  O    0.000000
     2  O    6.269628   0.000000
     3  N    4.675001   4.203129   0.000000
     4  H    5.568923   4.800238   1.010438   0.000000
     5  C    4.173620   2.355326   2.352674   3.250480   0.000000
     6  C    3.615163   5.073186   1.367449   2.026481   2.849288
     7  C    4.969604   2.855576   1.356674   2.016001   1.389863
     8  C    5.065581   1.231910   3.702231   4.496046   1.451548
     9  C    2.698616   3.671191   2.742176   3.751670   1.481899
    10  H    2.479653   3.897894   3.650660   4.653054   2.129907
    11  H    2.679154   4.045534   3.403909   4.369273   2.125865
    12  C    2.326251   4.872911   2.356609   3.253991   2.531809
    13  C    1.234969   6.085801   3.743571   4.554592   3.812028
    14  C    6.454271   2.785939   2.401338   2.469783   2.577287
    15  H    6.979640   3.865961   2.466579   2.080954   3.447796
    16  H    6.884957   2.531596   3.173552   3.294565   2.876358
    17  H    6.896360   2.604717   3.099941   3.181575   2.956526
    18  C    4.862789   2.359986   4.894753   5.788183   2.544883
    19  H    5.884783   2.477971   5.760572   6.593028   3.424328
    20  H    4.270234   3.191380   4.986617   5.928963   2.765802
    21  H    4.696426   2.959381   5.216683   6.134835   2.968299
    22  C    2.359122   7.380185   4.462882   5.056367   5.087838
    23  H    2.916127   7.974172   4.755397   5.240005   5.627648
    24  H    3.212061   7.377658   4.208148   4.666741   5.146987
    25  H    2.461697   8.021867   5.446191   6.082417   5.805948
    26  C    4.387072   6.478116   2.398594   2.460268   4.323978
    27  H    4.721301   6.931055   2.999143   2.992264   4.850547
    28  H    4.138874   7.179114   3.242781   3.394213   4.917912
    29  H    5.364076   6.675714   2.476050   2.115149   4.707416
                    6          7          8          9         10
     6  C    0.000000
     7  C    2.445531   0.000000
     8  C    4.297309   2.485769   0.000000
     9  C    2.470691   2.472907   2.528995   0.000000
    10  H    3.281325   3.294756   2.710797   1.094394   0.000000
    11  H    3.102468   3.128010   2.884782   1.104271   1.705446
    12  C    1.385209   2.848668   3.851690   1.484324   2.108383
    13  C    2.540503   4.295728   4.966549   2.469099   2.588290
    14  C    3.723711   1.488571   3.058664   3.896401   4.638846
    15  H    3.825747   2.137090   4.116954   4.596100   5.422949
    16  H    4.443773   2.136736   3.004112   4.249078   5.004625
    17  H    4.339122   2.137213   3.128280   4.336035   4.874283
    18  C    5.181362   3.837194   1.505985   2.896701   2.615401
    19  H    6.173217   4.592444   2.126455   3.944634   3.695219
    20  H    5.073904   4.109811   2.177059   2.659360   2.424641
    21  H    5.354745   4.265251   2.144502   3.086538   2.443183
    22  C    3.114940   5.308434   6.325382   3.880656   3.990583
    23  H    3.395416   5.730670   6.928885   4.439281   4.727710
    24  H    2.934845   5.156473   6.430073   4.164084   4.311761
    25  H    4.127818   6.184580   6.921970   4.511235   4.380367
    26  C    1.492506   3.713608   5.770757   3.903803   4.639898
    27  H    2.155029   4.251255   6.254224   4.436613   4.993334
    28  H    2.145200   4.494611   6.361818   4.233060   4.937571
    29  H    2.134777   3.822308   6.123748   4.562010   5.414909
                   11         12         13         14         15
    11  H    0.000000
    12  C    2.101733   0.000000
    13  C    2.768817   1.455095   0.000000
    14  C    4.461457   4.322540   5.772356   0.000000
    15  H    5.154688   4.720983   6.156945   1.088875   0.000000
    16  H    4.588439   4.899420   6.335913   1.085602   1.765765
    17  H    5.035316   4.842343   6.244973   1.086600   1.763881
    18  C    2.951599   4.364774   5.129459   4.559709   5.607769
    19  H    3.899173   5.420351   6.200096   5.054240   6.129095
    20  H    2.337331   4.107924   4.701396   5.027098   6.006292
    21  H    3.361856   4.433119   5.019145   5.073832   6.106764
    22  C    4.245333   2.596494   1.509464   6.712721   6.913014
    23  H    4.619928   3.101737   2.151267   7.099980   7.193589
    24  H    4.747447   2.797952   2.180658   6.457162   6.560845
    25  H    4.831410   3.424258   2.110732   7.611334   7.881416
    26  C    4.429956   2.590050   3.184194   4.746352   4.536087
    27  H    5.120260   3.092915   3.487348   5.221969   4.994803
    28  H    4.550227   2.836625   3.011496   5.618260   5.445904
    29  H    5.033511   3.426673   4.195968   4.568349   4.126574
                   16         17         18         19         20
    16  H    0.000000
    17  H    1.736765   0.000000
    18  C    4.436747   4.600950   0.000000
    19  H    4.745789   5.015823   1.084540   0.000000
    20  H    4.874473   5.268353   1.085905   1.766325   0.000000
    21  H    5.137593   4.962585   1.089572   1.756576   1.748914
    22  C    7.402251   7.165003   6.578477   7.657963   6.200139
    23  H    7.736849   7.677859   7.230328   8.292965   6.757883
    24  H    7.266126   6.825882   6.863761   7.946331   6.644026
    25  H    8.291933   7.991271   6.980093   8.047405   6.571532
    26  C    5.523787   5.371460   6.670567   7.665388   6.526497
    27  H    6.119602   5.668643   7.140640   8.156881   7.089482
    28  H    6.295335   6.313606   7.102897   8.115955   6.800409
    29  H    5.313031   5.270833   7.179622   8.108556   7.082048
                   21         22         23         24         25
    21  H    0.000000
    22  C    6.389183   0.000000
    23  H    7.166038   1.091936   0.000000
    24  H    6.632735   1.086877   1.765219   0.000000
    25  H    6.661497   1.087808   1.760128   1.774367   0.000000
    26  C    6.808966   3.052020   3.012230   2.633147   4.118613
    27  H    7.130836   3.027860   3.166897   2.256494   3.977742
    28  H    7.253619   2.650649   2.254737   2.504444   3.700102
    29  H    7.429704   4.115898   3.952936   3.684285   5.184303
                   26         27         28         29
    26  C    0.000000
    27  H    1.090239   0.000000
    28  H    1.084549   1.756787   0.000000
    29  H    1.089228   1.753796   1.749618   0.000000
 Stoichiometry    C11H15NO2
 Framework group  C1[X(C11H15NO2)]
 Deg. of freedom    81
 Full point group                 C1      NOp   1
 RotChk:  IX=0 Diff= 2.50D-16
 Largest Abelian subgroup         C1      NOp   1
 Largest concise Abelian subgroup C1      NOp   1
                         Standard orientation:                         
 ---------------------------------------------------------------------
 Center     Atomic      Atomic             Coordinates (Angstroms)
 Number     Number       Type             X           Y           Z
 ---------------------------------------------------------------------
      1          8           0        2.285068   -2.283931   -0.258797
      2          8           0       -3.622913   -0.256782    0.284032
      3          7           0        0.019765    1.802857   -0.109773
      4          1           0        0.045847    2.812944   -0.115047
      5          6           0       -1.294545   -0.147674   -0.054137
      6          6           0        1.231627    1.169908   -0.083676
      7          6           0       -1.212514    1.239692   -0.039781
      8          6           0       -2.560161   -0.845600    0.080432
      9          6           0       -0.052407   -0.935552   -0.234043
     10          1           0       -0.049593   -1.807391    0.427460
     11          1           0       -0.053553   -1.410221   -1.231089
     12          6           0        1.236232   -0.215287   -0.079626
     13          6           0        2.400158   -1.083978    0.009562
     14          6           0       -2.343521    2.204970    0.030275
     15          1           0       -1.993113    3.228372   -0.094267
     16          1           0       -3.085575    1.997718   -0.734535
     17          1           0       -2.862388    2.134547    0.982387
     18          6           0       -2.570857   -2.348901   -0.008798
     19          1           0       -3.585254   -2.689618   -0.185252
     20          1           0       -1.927373   -2.736800   -0.792795
     21          1           0       -2.230728   -2.787383    0.928866
     22          6           0        3.747836   -0.581555    0.467618
     23          1           0        4.323449   -0.202027   -0.379113
     24          1           0        3.681288    0.205959    1.213738
     25          1           0        4.290355   -1.427609    0.883783
     26          6           0        2.400012    2.098535   -0.093914
     27          1           0        2.804297    2.262052    0.905304
     28          1           0        3.203846    1.725342   -0.719074
     29          1           0        2.111740    3.072472   -0.487315
 ---------------------------------------------------------------------
 Rotational constants (GHZ):           1.0759912           0.4901130           0.3435907
 Leave Link  202 at Fri Jan 23 22:38:06 2026, MaxMem=  2147483648 cpu:               0.0 elap:               0.0
 (Enter /data/home/wyx/g16/l301.exe)
 Standard basis: TZVP (5D, 7F)
 Ernie: Thresh=  0.10000D-02 Tol=  0.10000D-05 Strict=F.
 There are   370 symmetry adapted cartesian basis functions of A   symmetry.
 There are   356 symmetry adapted basis functions of A   symmetry.
   356 basis functions,   610 primitive gaussians,   370 cartesian basis functions
    52 alpha electrons       52 beta electrons
       nuclear repulsion energy       899.7307498244 Hartrees.
 IExCor=20419 DFT=T Ex+Corr=CAM-B3LYP ExCW=0 ScaHFX=  1.000000
 ScaDFX=  1.000000  1.000000  1.000000  0.810000 ScalE2=  1.000000  1.000000
 IRadAn=      5 IRanWt=     -1 IRanGd=            0 ICorTp=0 IEmpDi=141
 HFx  wShort=  0.000000 wLong=  0.330000 cFull=  0.190000 cShort=  0.000000 cLong=  0.460000
 DFx  wShort=  0.000000 wLong=  0.330000 cFull=  0.190000 cShort=  0.000000 cLong=  0.460000
 NAtoms=   29 NActive=   29 NUniq=   29 SFac= 1.00D+00 NAtFMM=   60 NAOKFM=F Big=F
 Integral buffers will be    131072 words long.
 Raffenetti 2 integral format.
 Two-electron integral symmetry is turned on.
 R6Disp:  Grimme-D3(BJ) Dispersion energy=       -0.0261442860 Hartrees.
 Nuclear repulsion after empirical dispersion term =      899.7046055385 Hartrees.
 ------------------------------------------------------------------------------
 Polarizable Continuum Model (PCM)
 =================================
 Model                : PCM.
 Atomic radii         : UFF (Universal Force Field).
 Polarization charges : Total charges.
 Charge compensation  : None.
 Solution method      : On-the-fly selection.
 Cavity type          : Scaled VdW (van der Waals Surface) (Alpha=1.100).
 Cavity algorithm     : GePol (No added spheres)
                        Default sphere list used, NSphG=   29.
                        Lebedev-Laikov grids with approx.  5.0 points / Ang**2.
                        Smoothing algorithm: York/Karplus (Gamma=1.0000).
                        Polarization charges: spherical gaussians, with
                                              point-specific exponents (IZeta= 3).
                        Self-potential: point-specific (ISelfS= 7).
                        Self-field    : sphere-specific E.n sum rule (ISelfD= 2).
 Solvent              : TetraHydroFuran, Eps=   7.425700 Eps(inf)=   1.974025
 ------------------------------------------------------------------------------
 GePol: Number of generator spheres                  =      29
 GePol: Total number of spheres                      =      29
 GePol: Number of exposed spheres                    =      29 (100.00%)
 GePol: Number of points                             =    2108
 GePol: Average weight of points                     =       0.13
 GePol: Minimum weight of points                     =   0.12D-09
 GePol: Maximum weight of points                     =    0.20577
 GePol: Number of points with low weight             =     132
 GePol: Fraction of low-weight points (<1% of avg)   =       6.26%
 GePol: Cavity surface area                          =    268.884 Ang**2
 GePol: Cavity volume                                =    286.929 Ang**3
 Leave Link  301 at Fri Jan 23 22:38:06 2026, MaxMem=  2147483648 cpu:               0.6 elap:               0.0
 (Enter /data/home/wyx/g16/l302.exe)
 NPDir=0 NMtPBC=     1 NCelOv=     1 NCel=       1 NClECP=     1 NCelD=      1
         NCelK=      1 NCelE2=     1 NClLst=     1 CellRange=     0.0.
 One-electron integrals computed using PRISM.
 One-electron integral symmetry used in STVInt
 NBasis=   356 RedAO= T EigKep=  4.29D-05  NBF=   356
 NBsUse=   356 1.00D-06 EigRej= -1.00D+00 NBFU=   356
 Precomputing XC quadrature grid using
 IXCGrd= 4 IRadAn=           5 IRanWt=          -1 IRanGd=           0 AccXCQ= 0.00D+00.
 Generated NRdTot=       0 NPtTot=           0 NUsed=           0 NTot=          32
 NSgBfM=   366   366   366   366   366 MxSgAt=    29 MxSgA2=    29.
 Leave Link  302 at Fri Jan 23 22:38:07 2026, MaxMem=  2147483648 cpu:               3.1 elap:               0.2
 (Enter /data/home/wyx/g16/l303.exe)
 DipDrv:  MaxL=1.
 Leave Link  303 at Fri Jan 23 22:38:07 2026, MaxMem=  2147483648 cpu:               0.6 elap:               0.0
 (Enter /data/home/wyx/g16/l401.exe)
 Initial guess from the checkpoint file:  "DDL-S2-cLR-gs-5.chk"
 B after Tr=    -0.000000    0.000000    0.000000
         Rot=    1.000000   -0.000000    0.000000    0.000000 Ang=   0.00 deg.
 Guess basis will be translated and rotated to current coordinates.
 JPrj=2 DoOrth=T DoCkMO=T.
 Leave Link  401 at Fri Jan 23 22:38:07 2026, MaxMem=  2147483648 cpu:               2.2 elap:               0.2
 (Enter /data/home/wyx/g16/l502.exe)
 Integral symmetry usage will be decided dynamically.
 Closed shell SCF:
 Using DIIS extrapolation, IDIIS=  1040.
 NGot=  2147483648 LenX=  2147200095 LenY=  2147062754
 Requested convergence on RMS density matrix=1.00D-08 within 128 cycles.
 Requested convergence on MAX density matrix=1.00D-06.
 Requested convergence on             energy=1.00D-06.
 No special actions if energy rises.
 Fock matrices will be formed incrementally for  20 cycles.

 Cycle   1  Pass 1  IDiag  1:
 FoFJK:  IHMeth= 1 ICntrl=       0 DoSepK=T KAlg= 0 I1Cent=           0 FoldK=F
 IRaf=         1 NMat=       1 IRICut=       1 DoRegI=T DoRafI=F ISym2E= 0 IDoP0=0 IntGTp=1.
 FoFCou: FMM=F IPFlag=           0 FMFlag=      100000 FMFlg1=           0
         NFxFlg=           0 DoJE=T BraDBF=F KetDBF=F FulRan=T
         wScrn=  0.000000 ICntrl=       500 IOpCl=  0 I1Cent=           0 NGrid=           0
         NMat0=    1 NMatS0=      1 NMatT0=    0 NMatD0=    1 NMtDS0=    0 NMtDT0=    0
 Symmetry not used in FoFCou.
 Inv3:  Mode=1 IEnd=    13330992.
 Iteration    1 A*A^-1 deviation from unit magnitude is 3.22D-15 for   1254.
 Iteration    1 A*A^-1 deviation from orthogonality  is 2.22D-15 for   2020    790.
 Iteration    1 A^-1*A deviation from unit magnitude is 3.00D-15 for   1254.
 Iteration    1 A^-1*A deviation from orthogonality  is 2.60D-15 for    740    247.
 NEqPCM:  Using non-equilibrium solvation (IEInf=1, Eps=   7.4257, EpsInf=   1.9740)
 Inv3:  Mode=1 IEnd=    13330992.
 Iteration    1 A*A^-1 deviation from unit magnitude is 3.33D-15 for   1775.
 Iteration    1 A*A^-1 deviation from orthogonality  is 1.67D-15 for   1978    411.
 Iteration    1 A^-1*A deviation from unit magnitude is 3.33D-15 for   1775.
 Iteration    1 A^-1*A deviation from orthogonality  is 1.89D-15 for   1389    891.
 E= -633.321462245823    
 DIIS: error= 5.05D-04 at cycle   1 NSaved=   1.
 NSaved= 1 IEnMin= 1 EnMin= -633.321462245823     IErMin= 1 ErrMin= 5.05D-04
 ErrMax= 5.05D-04  0.00D+00 EMaxC= 1.00D-01 BMatC= 5.20D-05 BMatP= 5.20D-05
 IDIUse=3 WtCom= 9.95D-01 WtEn= 5.05D-03
 Coeff-Com:  0.100D+01
 Coeff-En:   0.100D+01
 Coeff:      0.100D+01
 Gap=     0.222 Goal=   None    Shift=    0.000
 RMSDP=3.15D-04 MaxDP=2.21D-02              OVMax= 8.75D-03

 Cycle   2  Pass 1  IDiag  1:
 RMSU=  3.12D-04    CP:  1.00D+00
 E= -633.321560897926     Delta-E=       -0.000098652103 Rises=F Damp=F
 DIIS: error= 3.41D-04 at cycle   2 NSaved=   2.
 NSaved= 2 IEnMin= 2 EnMin= -633.321560897926     IErMin= 2 ErrMin= 3.41D-04
 ErrMax= 3.41D-04  0.00D+00 EMaxC= 1.00D-01 BMatC= 5.14D-05 BMatP= 5.20D-05
 IDIUse=3 WtCom= 9.97D-01 WtEn= 3.41D-03
 Coeff-Com:  0.498D+00 0.502D+00
 Coeff-En:   0.000D+00 0.100D+01
 Coeff:      0.496D+00 0.504D+00
 Gap=     0.222 Goal=   None    Shift=    0.000
 RMSDP=8.68D-05 MaxDP=4.82D-03 DE=-9.87D-05 OVMax= 1.78D-03

 Cycle   3  Pass 1  IDiag  1:
 RMSU=  7.95D-05    CP:  1.00D+00  9.74D-01
 E= -633.321601296547     Delta-E=       -0.000040398621 Rises=F Damp=F
 DIIS: error= 1.30D-04 at cycle   3 NSaved=   3.
 NSaved= 3 IEnMin= 3 EnMin= -633.321601296547     IErMin= 3 ErrMin= 1.30D-04
 ErrMax= 1.30D-04  0.00D+00 EMaxC= 1.00D-01 BMatC= 6.37D-06 BMatP= 5.14D-05
 IDIUse=3 WtCom= 9.99D-01 WtEn= 1.30D-03
 Coeff-Com:  0.636D-01 0.236D+00 0.700D+00
 Coeff-En:   0.000D+00 0.000D+00 0.100D+01
 Coeff:      0.635D-01 0.236D+00 0.701D+00
 Gap=     0.222 Goal=   None    Shift=    0.000
 RMSDP=2.36D-05 MaxDP=1.17D-03 DE=-4.04D-05 OVMax= 1.31D-03

 Cycle   4  Pass 1  IDiag  1:
 RMSU=  1.71D-05    CP:  1.00D+00  9.95D-01  1.19D+00
 E= -633.321607128101     Delta-E=       -0.000005831555 Rises=F Damp=F
 DIIS: error= 6.66D-05 at cycle   4 NSaved=   4.
 NSaved= 4 IEnMin= 4 EnMin= -633.321607128101     IErMin= 4 ErrMin= 6.66D-05
 ErrMax= 6.66D-05  0.00D+00 EMaxC= 1.00D-01 BMatC= 5.74D-07 BMatP= 6.37D-06
 IDIUse=1 WtCom= 1.00D+00 WtEn= 0.00D+00
 Coeff-Com: -0.141D-01 0.150D-01 0.216D+00 0.783D+00
 Coeff:     -0.141D-01 0.150D-01 0.216D+00 0.783D+00
 Gap=     0.222 Goal=   None    Shift=    0.000
 RMSDP=1.61D-05 MaxDP=8.74D-04 DE=-5.83D-06 OVMax= 8.21D-04

 Cycle   5  Pass 1  IDiag  1:
 RMSU=  7.76D-06    CP:  1.00D+00  1.01D+00  1.35D+00  1.06D+00
 E= -633.321608011336     Delta-E=       -0.000000883234 Rises=F Damp=F
 DIIS: error= 2.32D-05 at cycle   5 NSaved=   5.
 NSaved= 5 IEnMin= 5 EnMin= -633.321608011336     IErMin= 5 ErrMin= 2.32D-05
 ErrMax= 2.32D-05  0.00D+00 EMaxC= 1.00D-01 BMatC= 1.65D-07 BMatP= 5.74D-07
 IDIUse=1 WtCom= 1.00D+00 WtEn= 0.00D+00
 Coeff-Com: -0.140D-01-0.348D-01-0.746D-02 0.364D+00 0.693D+00
 Coeff:     -0.140D-01-0.348D-01-0.746D-02 0.364D+00 0.693D+00
 Gap=     0.222 Goal=   None    Shift=    0.000
 RMSDP=6.54D-06 MaxDP=3.07D-04 DE=-8.83D-07 OVMax= 3.25D-04

 Cycle   6  Pass 1  IDiag  1:
 RMSU=  2.61D-06    CP:  1.00D+00  1.00D+00  1.41D+00  1.25D+00  1.06D+00
 E= -633.321608286210     Delta-E=       -0.000000274875 Rises=F Damp=F
 DIIS: error= 1.81D-05 at cycle   6 NSaved=   6.
 NSaved= 6 IEnMin= 6 EnMin= -633.321608286210     IErMin= 6 ErrMin= 1.81D-05
 ErrMax= 1.81D-05  0.00D+00 EMaxC= 1.00D-01 BMatC= 1.85D-08 BMatP= 1.65D-07
 IDIUse=1 WtCom= 1.00D+00 WtEn= 0.00D+00
 Coeff-Com: -0.572D-03-0.172D-01-0.277D-01-0.165D-03 0.177D+00 0.869D+00
 Coeff:     -0.572D-03-0.172D-01-0.277D-01-0.165D-03 0.177D+00 0.869D+00
 Gap=     0.222 Goal=   None    Shift=    0.000
 RMSDP=2.98D-06 MaxDP=1.21D-04 DE=-2.75D-07 OVMax= 2.63D-04

 Cycle   7  Pass 1  IDiag  1:
 RMSU=  1.18D-06    CP:  1.00D+00  1.00D+00  1.43D+00  1.32D+00  1.17D+00
                    CP:  1.29D+00
 E= -633.321608345898     Delta-E=       -0.000000059688 Rises=F Damp=F
 DIIS: error= 7.25D-06 at cycle   7 NSaved=   7.
 NSaved= 7 IEnMin= 7 EnMin= -633.321608345898     IErMin= 7 ErrMin= 7.25D-06
 ErrMax= 7.25D-06  0.00D+00 EMaxC= 1.00D-01 BMatC= 9.94D-09 BMatP= 1.85D-08
 IDIUse=1 WtCom= 1.00D+00 WtEn= 0.00D+00
 Coeff-Com:  0.279D-02-0.343D-02-0.856D-02-0.763D-01-0.108D+00 0.460D+00
 Coeff-Com:  0.734D+00
 Coeff:      0.279D-02-0.343D-02-0.856D-02-0.763D-01-0.108D+00 0.460D+00
 Coeff:      0.734D+00
 Gap=     0.222 Goal=   None    Shift=    0.000
 RMSDP=1.41D-06 MaxDP=5.33D-05 DE=-5.97D-08 OVMax= 1.38D-04

 Cycle   8  Pass 1  IDiag  1:
 RMSU=  4.55D-07    CP:  1.00D+00  1.00D+00  1.44D+00  1.36D+00  1.22D+00
                    CP:  1.55D+00  1.13D+00
 E= -633.321608365359     Delta-E=       -0.000000019461 Rises=F Damp=F
 DIIS: error= 2.41D-06 at cycle   8 NSaved=   8.
 NSaved= 8 IEnMin= 8 EnMin= -633.321608365359     IErMin= 8 ErrMin= 2.41D-06
 ErrMax= 2.41D-06  0.00D+00 EMaxC= 1.00D-01 BMatC= 9.61D-10 BMatP= 9.94D-09
 IDIUse=1 WtCom= 1.00D+00 WtEn= 0.00D+00
 Coeff-Com:  0.113D-02 0.742D-03 0.247D-02-0.246D-01-0.847D-01 0.192D-01
 Coeff-Com:  0.247D+00 0.839D+00
 Coeff:      0.113D-02 0.742D-03 0.247D-02-0.246D-01-0.847D-01 0.192D-01
 Coeff:      0.247D+00 0.839D+00
 Gap=     0.222 Goal=   None    Shift=    0.000
 RMSDP=5.63D-07 MaxDP=2.09D-05 DE=-1.95D-08 OVMax= 5.43D-05

 Cycle   9  Pass 1  IDiag  1:
 RMSU=  1.61D-07    CP:  1.00D+00  9.99D-01  1.44D+00  1.37D+00  1.22D+00
                    CP:  1.67D+00  1.33D+00  1.14D+00
 E= -633.321608367718     Delta-E=       -0.000000002359 Rises=F Damp=F
 DIIS: error= 7.89D-07 at cycle   9 NSaved=   9.
 NSaved= 9 IEnMin= 9 EnMin= -633.321608367718     IErMin= 9 ErrMin= 7.89D-07
 ErrMax= 7.89D-07  0.00D+00 EMaxC= 1.00D-01 BMatC= 1.25D-10 BMatP= 9.61D-10
 IDIUse=1 WtCom= 1.00D+00 WtEn= 0.00D+00
 Coeff-Com:  0.210D-04 0.664D-03 0.222D-02 0.404D-02-0.193D-01-0.601D-01
 Coeff-Com: -0.167D-02 0.339D+00 0.735D+00
 Coeff:      0.210D-04 0.664D-03 0.222D-02 0.404D-02-0.193D-01-0.601D-01
 Coeff:     -0.167D-02 0.339D+00 0.735D+00
 Gap=     0.222 Goal=   None    Shift=    0.000
 RMSDP=1.91D-07 MaxDP=1.06D-05 DE=-2.36D-09 OVMax= 1.60D-05

 Cycle  10  Pass 1  IDiag  1:
 RMSU=  7.38D-08    CP:  1.00D+00  9.99D-01  1.44D+00  1.38D+00  1.21D+00
                    CP:  1.71D+00  1.39D+00  1.25D+00  9.71D-01
 E= -633.321608367944     Delta-E=       -0.000000000227 Rises=F Damp=F
 DIIS: error= 2.46D-07 at cycle  10 NSaved=  10.
 NSaved=10 IEnMin=10 EnMin= -633.321608367944     IErMin=10 ErrMin= 2.46D-07
 ErrMax= 2.46D-07  0.00D+00 EMaxC= 1.00D-01 BMatC= 2.61D-11 BMatP= 1.25D-10
 IDIUse=1 WtCom= 1.00D+00 WtEn= 0.00D+00
 Coeff-Com: -0.996D-04 0.336D-03 0.316D-03 0.431D-02 0.143D-02-0.270D-01
 Coeff-Com: -0.263D-01 0.233D-01 0.312D+00 0.712D+00
 Coeff:     -0.996D-04 0.336D-03 0.316D-03 0.431D-02 0.143D-02-0.270D-01
 Coeff:     -0.263D-01 0.233D-01 0.312D+00 0.712D+00
 Gap=     0.222 Goal=   None    Shift=    0.000
 RMSDP=6.34D-08 MaxDP=3.48D-06 DE=-2.27D-10 OVMax= 4.33D-06

 Cycle  11  Pass 1  IDiag  1:
 RMSU=  2.13D-08    CP:  1.00D+00  9.99D-01  1.44D+00  1.38D+00  1.21D+00
                    CP:  1.71D+00  1.41D+00  1.28D+00  1.11D+00  1.09D+00
 E= -633.321608367969     Delta-E=       -0.000000000025 Rises=F Damp=F
 DIIS: error= 1.11D-07 at cycle  11 NSaved=  11.
 NSaved=11 IEnMin=11 EnMin= -633.321608367969     IErMin=11 ErrMin= 1.11D-07
 ErrMax= 1.11D-07  0.00D+00 EMaxC= 1.00D-01 BMatC= 4.80D-12 BMatP= 2.61D-11
 IDIUse=1 WtCom= 1.00D+00 WtEn= 0.00D+00
 Coeff-Com: -0.629D-04 0.105D-03-0.324D-03 0.165D-02 0.453D-02-0.221D-02
 Coeff-Com: -0.114D-01-0.577D-01 0.248D-01 0.330D+00 0.711D+00
 Coeff:     -0.629D-04 0.105D-03-0.324D-03 0.165D-02 0.453D-02-0.221D-02
 Coeff:     -0.114D-01-0.577D-01 0.248D-01 0.330D+00 0.711D+00
 Gap=     0.222 Goal=   None    Shift=    0.000
 RMSDP=3.43D-08 MaxDP=2.78D-06 DE=-2.51D-11 OVMax= 1.54D-06

 Cycle  12  Pass 1  IDiag  1:
 RMSU=  1.17D-08    CP:  1.00D+00  9.99D-01  1.44D+00  1.38D+00  1.21D+00
                    CP:  1.72D+00  1.42D+00  1.29D+00  1.14D+00  1.26D+00
                    CP:  9.78D-01
 E= -633.321608367973     Delta-E=       -0.000000000004 Rises=F Damp=F
 DIIS: error= 4.37D-08 at cycle  12 NSaved=  12.
 NSaved=12 IEnMin=12 EnMin= -633.321608367973     IErMin=12 ErrMin= 4.37D-08
 ErrMax= 4.37D-08  0.00D+00 EMaxC= 1.00D-01 BMatC= 6.68D-13 BMatP= 4.80D-12
 IDIUse=1 WtCom= 1.00D+00 WtEn= 0.00D+00
 Coeff-Com: -0.145D-04 0.248D-04-0.184D-03 0.144D-03 0.166D-02 0.254D-02
 Coeff-Com: -0.390D-03-0.270D-01-0.241D-01 0.392D-01 0.321D+00 0.688D+00
 Coeff:     -0.145D-04 0.248D-04-0.184D-03 0.144D-03 0.166D-02 0.254D-02
 Coeff:     -0.390D-03-0.270D-01-0.241D-01 0.392D-01 0.321D+00 0.688D+00
 Gap=     0.222 Goal=   None    Shift=    0.000
 RMSDP=7.51D-09 MaxDP=4.54D-07 DE=-3.52D-12 OVMax= 5.29D-07

 Error on total polarization charges =  0.00926
 SCF Done:  E(RCAM-B3LYP) =  -633.321608368     A.U. after   12 cycles
            NFock= 12  Conv=0.75D-08     -V/T= 2.0042
 KE= 6.306863095986D+02 PE=-3.275477970551D+03 EE= 1.111765447046D+03
 Leave Link  502 at Fri Jan 23 22:38:55 2026, MaxMem=  2147483648 cpu:             752.9 elap:              47.7
 (Enter /data/home/wyx/g16/l601.exe)
 Copying SCF densities to generalized density rwf, IOpCl= 0 IROHF=0.

 **********************************************************************

            Population analysis using the SCF density.

 **********************************************************************

 Orbital symmetries:
       Occupied  (A) (A) (A) (A) (A) (A) (A) (A) (A) (A) (A) (A)
                 (A) (A) (A) (A) (A) (A) (A) (A) (A) (A) (A) (A)
                 (A) (A) (A) (A) (A) (A) (A) (A) (A) (A) (A) (A)
                 (A) (A) (A) (A) (A) (A) (A) (A) (A) (A) (A) (A)
                 (A) (A) (A) (A)
       Virtual   (A) (A) (A) (A) (A) (A) (A) (A) (A) (A) (A) (A)
                 (A) (A) (A) (A) (A) (A) (A) (A) (A) (A) (A) (A)
                 (A) (A) (A) (A) (A) (A) (A) (A) (A) (A) (A) (A)
                 (A) (A) (A) (A) (A) (A) (A) (A) (A) (A) (A) (A)
                 (A) (A) (A) (A) (A) (A) (A) (A) (A) (A) (A) (A)
                 (A) (A) (A) (A) (A) (A) (A) (A) (A) (A) (A) (A)
                 (A) (A) (A) (A) (A) (A) (A) (A) (A) (A) (A) (A)
                 (A) (A) (A) (A) (A) (A) (A) (A) (A) (A) (A) (A)
                 (A) (A) (A) (A) (A) (A) (A) (A) (A) (A) (A) (A)
                 (A) (A) (A) (A) (A) (A) (A) (A) (A) (A) (A) (A)
                 (A) (A) (A) (A) (A) (A) (A) (A) (A) (A) (A) (A)
                 (A) (A) (A) (A) (A) (A) (A) (A) (A) (A) (A) (A)
                 (A) (A) (A) (A) (A) (A) (A) (A) (A) (A) (A) (A)
                 (A) (A) (A) (A) (A) (A) (A) (A) (A) (A) (A) (A)
                 (A) (A) (A) (A) (A) (A) (A) (A) (A) (A) (A) (A)
                 (A) (A) (A) (A) (A) (A) (A) (A) (A) (A) (A) (A)
                 (A) (A) (A) (A) (A) (A) (A) (A) (A) (A) (A) (A)
                 (A) (A) (A) (A) (A) (A) (A) (A) (A) (A) (A) (A)
                 (A) (A) (A) (A) (A) (A) (A) (A) (A) (A) (A) (A)
                 (A) (A) (A) (A) (A) (A) (A) (A) (A) (A) (A) (A)
                 (A) (A) (A) (A) (A) (A) (A) (A) (A) (A) (A) (A)
                 (A) (A) (A) (A) (A) (A) (A) (A) (A) (A) (A) (A)
                 (A) (A) (A) (A) (A) (A) (A) (A) (A) (A) (A) (A)
                 (A) (A) (A) (A) (A) (A) (A) (A) (A) (A) (A) (A)
                 (A) (A) (A) (A) (A) (A) (A) (A) (A) (A) (A) (A)
                 (A) (A) (A) (A)
 The electronic state is 1-A.
 Alpha  occ. eigenvalues --  -19.18073 -19.16658 -14.44866 -10.33626 -10.32984
 Alpha  occ. eigenvalues --  -10.32526 -10.32074 -10.26526 -10.25578 -10.24986
 Alpha  occ. eigenvalues --  -10.24710 -10.24638 -10.24537 -10.23222  -1.11778
 Alpha  occ. eigenvalues --   -1.10649  -1.08543  -0.91653  -0.90617  -0.84056
 Alpha  occ. eigenvalues --   -0.82788  -0.81809  -0.78566  -0.74083  -0.72167
 Alpha  occ. eigenvalues --   -0.68794  -0.61694  -0.58439  -0.57148  -0.55372
 Alpha  occ. eigenvalues --   -0.54840  -0.54013  -0.52591  -0.51914  -0.51051
 Alpha  occ. eigenvalues --   -0.49959  -0.49495  -0.49231  -0.48815  -0.48151
 Alpha  occ. eigenvalues --   -0.47246  -0.45437  -0.44853  -0.44088  -0.43433
 Alpha  occ. eigenvalues --   -0.42331  -0.42216  -0.41429  -0.32840  -0.32371
 Alpha  occ. eigenvalues --   -0.30817  -0.25434
 Alpha virt. eigenvalues --   -0.03221   0.02502   0.05967   0.07890   0.08264
 Alpha virt. eigenvalues --    0.09584   0.10781   0.11598   0.12394   0.13292
 Alpha virt. eigenvalues --    0.13762   0.14622   0.15469   0.16334   0.16949
 Alpha virt. eigenvalues --    0.17587   0.17767   0.17928   0.18356   0.19275
 Alpha virt. eigenvalues --    0.19741   0.22008   0.22599   0.23341   0.23623
 Alpha virt. eigenvalues --    0.23717   0.24750   0.25478   0.26297   0.26607
 Alpha virt. eigenvalues --    0.27117   0.27879   0.28319   0.29233   0.30154
 Alpha virt. eigenvalues --    0.31532   0.31768   0.32263   0.33283   0.34262
 Alpha virt. eigenvalues --    0.34614   0.35888   0.36714   0.37809   0.38387
 Alpha virt. eigenvalues --    0.39645   0.40835   0.41272   0.41681   0.42290
 Alpha virt. eigenvalues --    0.43892   0.44678   0.45454   0.46098   0.46476
 Alpha virt. eigenvalues --    0.47153   0.47617   0.47961   0.48325   0.48964
 Alpha virt. eigenvalues --    0.49361   0.50557   0.51304   0.51466   0.51582
 Alpha virt. eigenvalues --    0.52722   0.52815   0.53182   0.53827   0.54178
 Alpha virt. eigenvalues --    0.54306   0.55248   0.55859   0.56603   0.58111
 Alpha virt. eigenvalues --    0.58295   0.59697   0.60973   0.61393   0.62968
 Alpha virt. eigenvalues --    0.63783   0.65202   0.66357   0.66848   0.67597
 Alpha virt. eigenvalues --    0.68692   0.69561   0.70695   0.71309   0.72017
 Alpha virt. eigenvalues --    0.72997   0.74374   0.74849   0.75722   0.77562
 Alpha virt. eigenvalues --    0.78904   0.80085   0.83114   0.86093   0.87203
 Alpha virt. eigenvalues --    0.90830   0.95250   1.01813   1.04197   1.22368
 Alpha virt. eigenvalues --    1.24333   1.26962   1.28467   1.29153   1.30520
 Alpha virt. eigenvalues --    1.31974   1.32898   1.34248   1.35004   1.36047
 Alpha virt. eigenvalues --    1.36591   1.37936   1.38259   1.38633   1.39488
 Alpha virt. eigenvalues --    1.39851   1.40381   1.40665   1.41197   1.41840
 Alpha virt. eigenvalues --    1.43337   1.43424   1.44245   1.45296   1.47283
 Alpha virt. eigenvalues --    1.47913   1.49341   1.49930   1.50147   1.50431
 Alpha virt. eigenvalues --    1.51113   1.52242   1.52586   1.55233   1.58327
 Alpha virt. eigenvalues --    1.59161   1.60187   1.60832   1.61463   1.62371
 Alpha virt. eigenvalues --    1.62484   1.63135   1.63806   1.64350   1.65899
 Alpha virt. eigenvalues --    1.66396   1.66972   1.67404   1.67844   1.68444
 Alpha virt. eigenvalues --    1.68996   1.69685   1.70102   1.70926   1.72214
 Alpha virt. eigenvalues --    1.74014   1.74794   1.75737   1.76652   1.78496
 Alpha virt. eigenvalues --    1.81215   1.82617   1.83709   1.85577   1.86510
 Alpha virt. eigenvalues --    1.86703   1.88128   1.88606   1.88891   1.90183
 Alpha virt. eigenvalues --    1.91045   1.94353   1.94902   1.98989   1.99732
 Alpha virt. eigenvalues --    2.01357   2.03757   2.05346   2.06712   2.09413
 Alpha virt. eigenvalues --    2.10424   2.11814   2.15447   2.17459   2.19536
 Alpha virt. eigenvalues --    2.20276   2.21001   2.21954   2.22818   2.26511
 Alpha virt. eigenvalues --    2.27122   2.27324   2.29173   2.31244   2.32198
 Alpha virt. eigenvalues --    2.33843   2.34155   2.36691   2.37874   2.39001
 Alpha virt. eigenvalues --    2.39400   2.40300   2.41379   2.42737   2.44892
 Alpha virt. eigenvalues --    2.45898   2.47831   2.49228   2.50050   2.51136
 Alpha virt. eigenvalues --    2.52307   2.54162   2.54665   2.56470   2.57432
 Alpha virt. eigenvalues --    2.58593   2.61074   2.61673   2.62480   2.63272
 Alpha virt. eigenvalues --    2.64666   2.65621   2.66523   2.67328   2.68429
 Alpha virt. eigenvalues --    2.71636   2.71969   2.73692   2.74753   2.75353
 Alpha virt. eigenvalues --    2.76216   2.76837   2.77147   2.78034   2.79006
 Alpha virt. eigenvalues --    2.80893   2.81892   2.83140   2.83954   2.84731
 Alpha virt. eigenvalues --    2.85596   2.86310   2.88684   2.89334   2.92113
 Alpha virt. eigenvalues --    2.97282   2.99219   3.00733   3.06478   3.10656
 Alpha virt. eigenvalues --    3.12075   3.15007   3.17453   3.18884   3.21237
 Alpha virt. eigenvalues --    3.22092   3.23521   3.24890   3.25584   3.27150
 Alpha virt. eigenvalues --    3.28181   3.30341   3.32746   3.34721   3.36350
 Alpha virt. eigenvalues --    3.37910   3.38574   3.39758   3.39926   3.41873
 Alpha virt. eigenvalues --    3.42098   3.44055   3.44996   3.47810   3.48541
 Alpha virt. eigenvalues --    3.49476   3.49907   3.55516   3.58328   3.60116
 Alpha virt. eigenvalues --    3.60997   3.90851   4.00476   4.33251   4.36788
 Alpha virt. eigenvalues --   21.67045  21.80626  22.08104  22.10371  22.11906
 Alpha virt. eigenvalues --   22.14820  22.15284  22.18460  22.19377  22.24786
 Alpha virt. eigenvalues --   22.28012  31.91515  43.63741  43.66922
          Condensed to atoms (all electrons):
               1          2          3          4          5          6
     1  O    7.929747   0.000000  -0.000190   0.000019   0.018932   0.010162
     2  O    0.000000   7.956097   0.000519   0.000023  -0.189362   0.001224
     3  N   -0.000190   0.000519   6.386079   0.370528  -0.123896   0.328281
     4  H    0.000019   0.000023   0.370528   0.413049   0.015873  -0.047052
     5  C    0.018932  -0.189362  -0.123896   0.015873   7.130238  -0.083495
     6  C    0.010162   0.001224   0.328281  -0.047052  -0.083495   5.598028
     7  C   -0.000119  -0.047580   0.386518  -0.037319   0.454242  -0.122719
     8  C   -0.000652   0.698459   0.004556  -0.000797  -0.294435   0.030974
     9  C   -0.006299   0.025703   0.014260   0.000093  -0.710520  -0.047731
    10  H    0.009476  -0.000022  -0.001264   0.000023  -0.119543   0.029288
    11  H    0.007061   0.000121   0.003633   0.000033  -0.048681  -0.020364
    12  C   -0.231139  -0.003031  -0.091369   0.014567   0.202168  -0.110891
    13  C    0.716862  -0.000013   0.001722   0.000549   0.082952   0.134824
    14  C   -0.000008   0.001539  -0.033638  -0.009953  -0.088164   0.012136
    15  H   -0.000000   0.004205   0.004188   0.002029   0.021656   0.006565
    16  H    0.000000   0.001364   0.000063   0.000805  -0.007758  -0.001209
    17  H   -0.000000   0.002332  -0.002130   0.000934  -0.009043  -0.001487
    18  C    0.000230  -0.101280  -0.000476   0.000022  -0.256233  -0.000047
    19  H   -0.000001   0.007527   0.000004  -0.000001   0.020950   0.000025
    20  H    0.000141   0.004103   0.000114   0.000001   0.045264  -0.001244
    21  H   -0.000002   0.000783   0.000012  -0.000001   0.003111   0.000218
    22  C   -0.106015   0.000000  -0.000232   0.000121   0.004154  -0.022356
    23  H    0.001397   0.000000   0.000010  -0.000012  -0.000019   0.009097
    24  H    0.005017  -0.000000   0.000145  -0.000056  -0.000709  -0.027663
    25  H    0.006750   0.000000   0.000024  -0.000003  -0.000146  -0.000810
    26  C    0.000820   0.000009  -0.026156  -0.006457   0.000410   0.187678
    27  H   -0.000052  -0.000000  -0.002600   0.000481   0.000405  -0.033152
    28  H   -0.000246  -0.000000   0.001464   0.000761   0.000019  -0.046598
    29  H    0.000023   0.000000   0.001621   0.001877  -0.000369  -0.049825
               7          8          9         10         11         12
     1  O   -0.000119  -0.000652  -0.006299   0.009476   0.007061  -0.231139
     2  O   -0.047580   0.698459   0.025703  -0.000022   0.000121  -0.003031
     3  N    0.386518   0.004556   0.014260  -0.001264   0.003633  -0.091369
     4  H   -0.037319  -0.000797   0.000093   0.000023   0.000033   0.014567
     5  C    0.454242  -0.294435  -0.710520  -0.119543  -0.048681   0.202168
     6  C   -0.122719   0.030974  -0.047731   0.029288  -0.020364  -0.110891
     7  C    5.427974  -0.220259  -0.217684   0.016462  -0.005912   0.024857
     8  C   -0.220259   5.355392   0.192963  -0.008379  -0.002975  -0.050456
     9  C   -0.217684   0.192963   6.460914   0.542316   0.411769  -0.150514
    10  H    0.016462  -0.008379   0.542316   0.527744  -0.046621  -0.110024
    11  H   -0.005912  -0.002975   0.411769  -0.046621   0.578905  -0.015937
    12  C    0.024857  -0.050456  -0.150514  -0.110024  -0.015937   7.419196
    13  C    0.017378  -0.008392  -0.246668  -0.001666  -0.006477  -0.483182
    14  C    0.280674  -0.023565   0.008848   0.000489  -0.000924  -0.002049
    15  H   -0.089320   0.005305   0.000724  -0.000005   0.000047  -0.001569
    16  H   -0.020727  -0.007036  -0.000583  -0.000054   0.000182   0.000179
    17  H   -0.016695  -0.002296   0.000861   0.000060  -0.000063   0.000429
    18  C   -0.000246   0.319208   0.002742   0.005704  -0.011952  -0.001543
    19  H    0.000117  -0.048825  -0.001842   0.000568   0.000102  -0.000176
    20  H    0.003576  -0.071714  -0.008422  -0.006802   0.002427   0.007933
    21  H   -0.000336  -0.024166  -0.009731  -0.000666   0.000757  -0.002877
    22  C    0.000191  -0.000077   0.009239  -0.000816   0.002983  -0.256290
    23  H   -0.000006   0.000002  -0.002206  -0.000127   0.000181  -0.011121
    24  H   -0.000025   0.000006   0.002974   0.000069  -0.000207   0.066609
    25  H    0.000009   0.000003   0.000186  -0.000052  -0.000089   0.020195
    26  C    0.002436   0.000778   0.022491   0.000128  -0.000721  -0.084097
    27  H   -0.000818  -0.000013  -0.000439   0.000037  -0.000007  -0.017884
    28  H   -0.000714   0.000002  -0.000244   0.000016  -0.000120  -0.008407
    29  H    0.003139  -0.000005  -0.000513  -0.000015   0.000093   0.023627
              13         14         15         16         17         18
     1  O    0.716862  -0.000008  -0.000000   0.000000  -0.000000   0.000230
     2  O   -0.000013   0.001539   0.004205   0.001364   0.002332  -0.101280
     3  N    0.001722  -0.033638   0.004188   0.000063  -0.002130  -0.000476
     4  H    0.000549  -0.009953   0.002029   0.000805   0.000934   0.000022
     5  C    0.082952  -0.088164   0.021656  -0.007758  -0.009043  -0.256233
     6  C    0.134824   0.012136   0.006565  -0.001209  -0.001487  -0.000047
     7  C    0.017378   0.280674  -0.089320  -0.020727  -0.016695  -0.000246
     8  C   -0.008392  -0.023565   0.005305  -0.007036  -0.002296   0.319208
     9  C   -0.246668   0.008848   0.000724  -0.000583   0.000861   0.002742
    10  H   -0.001666   0.000489  -0.000005  -0.000054   0.000060   0.005704
    11  H   -0.006477  -0.000924   0.000047   0.000182  -0.000063  -0.011952
    12  C   -0.483182  -0.002049  -0.001569   0.000179   0.000429  -0.001543
    13  C    5.559364   0.000059  -0.000038  -0.000003  -0.000008   0.001359
    14  C    0.000059   5.019352   0.392967   0.415973   0.407382   0.001841
    15  H   -0.000038   0.392967   0.587022  -0.028926  -0.027213   0.000250
    16  H   -0.000003   0.415973  -0.028926   0.504299  -0.023655  -0.000233
    17  H   -0.000008   0.407382  -0.027213  -0.023655   0.501916   0.000012
    18  C    0.001359   0.001841   0.000250  -0.000233   0.000012   5.319914
    19  H   -0.000015  -0.000013  -0.000004   0.000040  -0.000029   0.397331
    20  H    0.000829   0.000052  -0.000015  -0.000028   0.000003   0.379801
    21  H   -0.000155  -0.000235  -0.000005   0.000015  -0.000006   0.399155
    22  C    0.281366  -0.000011   0.000002  -0.000000   0.000000   0.000040
    23  H   -0.022080  -0.000001   0.000000  -0.000000   0.000000  -0.000002
    24  H   -0.099166   0.000002   0.000000   0.000000   0.000000   0.000001
    25  H   -0.035652   0.000000   0.000000   0.000000  -0.000000  -0.000001
    26  C   -0.054150   0.000799   0.000236   0.000023  -0.000091   0.000010
    27  H    0.006684  -0.000109  -0.000003   0.000004  -0.000006  -0.000000
    28  H   -0.002375   0.000063  -0.000009  -0.000002   0.000001  -0.000000
    29  H   -0.001279  -0.000164   0.000101  -0.000002   0.000000   0.000000
              19         20         21         22         23         24
     1  O   -0.000001   0.000141  -0.000002  -0.106015   0.001397   0.005017
     2  O    0.007527   0.004103   0.000783   0.000000   0.000000  -0.000000
     3  N    0.000004   0.000114   0.000012  -0.000232   0.000010   0.000145
     4  H   -0.000001   0.000001  -0.000001   0.000121  -0.000012  -0.000056
     5  C    0.020950   0.045264   0.003111   0.004154  -0.000019  -0.000709
     6  C    0.000025  -0.001244   0.000218  -0.022356   0.009097  -0.027663
     7  C    0.000117   0.003576  -0.000336   0.000191  -0.000006  -0.000025
     8  C   -0.048825  -0.071714  -0.024166  -0.000077   0.000002   0.000006
     9  C   -0.001842  -0.008422  -0.009731   0.009239  -0.002206   0.002974
    10  H    0.000568  -0.006802  -0.000666  -0.000816  -0.000127   0.000069
    11  H    0.000102   0.002427   0.000757   0.002983   0.000181  -0.000207
    12  C   -0.000176   0.007933  -0.002877  -0.256290  -0.011121   0.066609
    13  C   -0.000015   0.000829  -0.000155   0.281366  -0.022080  -0.099166
    14  C   -0.000013   0.000052  -0.000235  -0.000011  -0.000001   0.000002
    15  H   -0.000004  -0.000015  -0.000005   0.000002   0.000000   0.000000
    16  H    0.000040  -0.000028   0.000015  -0.000000  -0.000000   0.000000
    17  H   -0.000029   0.000003  -0.000006   0.000000   0.000000   0.000000
    18  C    0.397331   0.379801   0.399155   0.000040  -0.000002   0.000001
    19  H    0.497074  -0.025067  -0.008581  -0.000000   0.000000   0.000000
    20  H   -0.025067   0.544991  -0.024987   0.000029  -0.000000  -0.000000
    21  H   -0.008581  -0.024987   0.495993  -0.000013   0.000000   0.000000
    22  C   -0.000000   0.000029  -0.000013   5.432627   0.400320   0.396549
    23  H    0.000000  -0.000000   0.000000   0.400320   0.495403  -0.027965
    24  H    0.000000  -0.000000   0.000000   0.396549  -0.027965   0.549233
    25  H   -0.000000  -0.000000   0.000000   0.383094  -0.007707  -0.022414
    26  C    0.000000  -0.000018   0.000003  -0.032571  -0.011125   0.016813
    27  H    0.000000   0.000000  -0.000000  -0.010799   0.000941  -0.001802
    28  H   -0.000000  -0.000000   0.000000   0.004651   0.000027  -0.007755
    29  H    0.000000   0.000000  -0.000000   0.002080   0.000184   0.000618
              25         26         27         28         29
     1  O    0.006750   0.000820  -0.000052  -0.000246   0.000023
     2  O    0.000000   0.000009  -0.000000  -0.000000   0.000000
     3  N    0.000024  -0.026156  -0.002600   0.001464   0.001621
     4  H   -0.000003  -0.006457   0.000481   0.000761   0.001877
     5  C   -0.000146   0.000410   0.000405   0.000019  -0.000369
     6  C   -0.000810   0.187678  -0.033152  -0.046598  -0.049825
     7  C    0.000009   0.002436  -0.000818  -0.000714   0.003139
     8  C    0.000003   0.000778  -0.000013   0.000002  -0.000005
     9  C    0.000186   0.022491  -0.000439  -0.000244  -0.000513
    10  H   -0.000052   0.000128   0.000037   0.000016  -0.000015
    11  H   -0.000089  -0.000721  -0.000007  -0.000120   0.000093
    12  C    0.020195  -0.084097  -0.017884  -0.008407   0.023627
    13  C   -0.035652  -0.054150   0.006684  -0.002375  -0.001279
    14  C    0.000000   0.000799  -0.000109   0.000063  -0.000164
    15  H    0.000000   0.000236  -0.000003  -0.000009   0.000101
    16  H    0.000000   0.000023   0.000004  -0.000002  -0.000002
    17  H   -0.000000  -0.000091  -0.000006   0.000001   0.000000
    18  C   -0.000001   0.000010  -0.000000  -0.000000   0.000000
    19  H   -0.000000   0.000000   0.000000  -0.000000   0.000000
    20  H   -0.000000  -0.000018   0.000000  -0.000000   0.000000
    21  H    0.000000   0.000003  -0.000000   0.000000  -0.000000
    22  C    0.383094  -0.032571  -0.010799   0.004651   0.002080
    23  H   -0.007707  -0.011125   0.000941   0.000027   0.000184
    24  H   -0.022414   0.016813  -0.001802  -0.007755   0.000618
    25  H    0.491471   0.001869   0.000118   0.000623  -0.000037
    26  C    0.001869   5.243216   0.427096   0.431274   0.388877
    27  H    0.000118   0.427096   0.481031  -0.027432  -0.017274
    28  H    0.000623   0.431274  -0.027432   0.506639  -0.025456
    29  H   -0.000037   0.388877  -0.017274  -0.025456   0.518650
 Mulliken charges:
               1
     1  O   -0.361914
     2  O   -0.362723
     3  N   -0.221788
     4  H    0.279865
     5  C   -0.068001
     6  C    0.268142
     7  C    0.162906
     8  C    0.156395
     9  C   -0.292685
    10  H    0.163674
    11  H    0.152757
    12  C   -0.147205
    13  C    0.157371
    14  C   -0.383345
    15  H    0.121811
    16  H    0.167270
    17  H    0.168794
    18  C   -0.455609
    19  H    0.160816
    20  H    0.149035
    21  H    0.171715
    22  C   -0.488267
    23  H    0.174808
    24  H    0.149728
    25  H    0.162569
    26  C   -0.509578
    27  H    0.195594
    28  H    0.173818
    29  H    0.154048
 Sum of Mulliken charges =  -0.00000
 Mulliken charges with hydrogens summed into heavy atoms:
               1
     1  O   -0.361914
     2  O   -0.362723
     3  N    0.058077
     5  C   -0.068001
     6  C    0.268142
     7  C    0.162906
     8  C    0.156395
     9  C    0.023746
    12  C   -0.147205
    13  C    0.157371
    14  C    0.074530
    18  C    0.025956
    22  C   -0.001162
    26  C    0.013882
 Electronic spatial extent (au):  <R**2>=           3200.3318
 Charge=             -0.0000 electrons
 Dipole moment (field-independent basis, Debye):
    X=              3.5791    Y=              7.3060    Z=              0.1411  Tot=              8.1368
 Quadrupole moment (field-independent basis, Debye-Ang):
   XX=            -96.7205   YY=            -78.3309   ZZ=            -84.9613
   XY=             12.4805   XZ=              4.0647   YZ=             -2.1669
 Traceless Quadrupole moment (field-independent basis, Debye-Ang):
   XX=            -10.0496   YY=              8.3400   ZZ=              1.7096
   XY=             12.4805   XZ=              4.0647   YZ=             -2.1669
 Octapole moment (field-independent basis, Debye-Ang**2):
  XXX=            102.6557  YYY=             62.7068  ZZZ=              1.4561  XYY=            -35.4231
  XXY=             30.3247  XXZ=             -4.9163  XZZ=              0.3931  YZZ=             -1.4043
  YYZ=              4.6064  XYZ=             -5.2029
 Hexadecapole moment (field-independent basis, Debye-Ang**3):
 XXXX=          -3032.0277 YYYY=          -1291.7415 ZZZZ=           -144.3804 XXXY=             36.3190
 XXXZ=             44.3966 YYYX=             89.1857 YYYZ=            -19.7423 ZZZX=             -3.8580
 ZZZY=              2.6604 XXYY=           -687.2129 XXZZ=           -479.2978 YYZZ=           -244.9540
 XXYZ=             -9.8182 YYXZ=              9.1661 ZZXY=             -0.2315
 N-N= 8.997046055385D+02 E-N=-3.275477974208D+03  KE= 6.306863095986D+02
 No NMR shielding tensors so no spin-rotation constants.
 Leave Link  601 at Fri Jan 23 22:38:56 2026, MaxMem=  2147483648 cpu:               1.8 elap:               0.1
 (Enter /data/home/wyx/g16/l9999.exe)
 1\1\GINC-CN012\SP\RCAM-B3LYP\TZVP\C11H15N1O2\WYX\23-Jan-2026\0\\#p CAM
 -B3LYP TZVP em=gd3bj scrf=(Solvent=TetraHydroFuran,NonEquilibrium=Read
 ) Geom=Check Guess=Read\\Title Card Required\\0,1\O,0,2.839128,-1.5718
 88,0.058447\O,0,-3.428037,-1.643708,-0.101917\N,0,-0.659458,1.516626,-
 0.218341\H,0,-0.970844,2.476567,-0.2687\C,0,-1.246582,-0.761572,-0.205
 119\C,0,0.68298,1.328286,-0.038606\C,0,-1.633437,0.572675,-0.248102\C,
 0,-2.214134,-1.842978,-0.167745\C,0,0.198902,-1.087745,-0.219652\H,0,0
 .417699,-1.901052,0.479174\H,0,0.467738,-1.545359,-1.188017\C,0,1.1481
 58,0.025401,0.031418\C,0,2.517151,-0.400414,0.280096\C,0,-3.021638,1.1
 02149,-0.339753\H,0,-3.020442,2.182453,-0.476102\H,0,-3.561562,0.64963
 9,-1.165736\H,0,-3.590745,0.871134,0.5566\C,0,-1.713485,-3.263187,-0.1
 86384\H,0,-2.529922,-3.926923,-0.449277\H,0,-0.893927,-3.420164,-0.881
 274\H,0,-1.354185,-3.552146,0.800821\C,0,3.560174,0.530548,0.849213\H,
 0,4.067644,1.072814,0.048747\H,0,3.151916,1.257443,1.546529\H,0,4.3031
 82,-0.07953,1.358203\C,0,1.468726,2.595532,0.026709\H,0,1.680698,2.895
 693,1.053155\H,0,2.415694,2.507947,-0.494661\H,0,0.918606,3.411758,-0.
 439726\\Version=ES64L-G16RevA.03\State=1-A\HF=-633.3216084\RMSD=7.509e
 -09\Dipole=0.354824,3.1809152,0.0630916\Quadrupole=-12.3864606,10.5202
 022,1.8662584,2.9345435,1.815459,-0.2684451\PG=C01 [X(C11H15N1O2)]\\@


 AND ALL THIS SCIENCE I DON'T UNDERSTAND
 IT'S JUST MY JOB FIVE DAYS A WEEK

                           -- ELTON JOHN, "ROCKET MAN"
 Job cpu time:       0 days  0 hours 12 minutes 43.2 seconds.
 Elapsed time:       0 days  0 hours  0 minutes 48.5 seconds.
 File lengths (MBytes):  RWF=    341 Int=      0 D2E=      0 Chk=     67 Scr=      1
 Normal termination of Gaussian 16 at Fri Jan 23 22:38:57 2026.
