 Entering Gaussian System, Link 0=g16
 Input=DDL-LR-16.gjf
 Output=DDL-LR-16.log
 Initial command:
 /data/home/wyx/g16/l1.exe "/scr/tmp/wyx/13106/Gau-1969029.inp" -scrdir="/scr/tmp/wyx/13106/"
 Entering Link 1 = /data/home/wyx/g16/l1.exe PID=   1969030.
  
 Copyright (c) 1988,1990,1992,1993,1995,1998,2003,2009,2016,
            Gaussian, Inc.  All Rights Reserved.
  
 This is part of the Gaussian(R) 16 program.  It is based on
 the Gaussian(R) 09 system (copyright 2009, Gaussian, Inc.),
 the Gaussian(R) 03 system (copyright 2003, Gaussian, Inc.),
 the Gaussian(R) 98 system (copyright 1998, Gaussian, Inc.),
 the Gaussian(R) 94 system (copyright 1995, Gaussian, Inc.),
 the Gaussian 92(TM) system (copyright 1992, Gaussian, Inc.),
 the Gaussian 90(TM) system (copyright 1990, Gaussian, Inc.),
 the Gaussian 88(TM) system (copyright 1988, Gaussian, Inc.),
 the Gaussian 86(TM) system (copyright 1986, Carnegie Mellon
 University), and the Gaussian 82(TM) system (copyright 1983,
 Carnegie Mellon University). Gaussian is a federally registered
 trademark of Gaussian, Inc.
  
 This software contains proprietary and confidential information,
 including trade secrets, belonging to Gaussian, Inc.
  
 This software is provided under written license and may be
 used, copied, transmitted, or stored only in accord with that
 written license.
  
 The following legend is applicable only to US Government
 contracts under FAR:
  
                    RESTRICTED RIGHTS LEGEND
  
 Use, reproduction and disclosure by the US Government is
 subject to restrictions as set forth in subparagraphs (a)
 and (c) of the Commercial Computer Software - Restricted
 Rights clause in FAR 52.227-19.
  
 Gaussian, Inc.
 340 Quinnipiac St., Bldg. 40, Wallingford CT 06492
  
  
 ---------------------------------------------------------------
 Warning -- This program may not be used in any manner that
 competes with the business of Gaussian, Inc. or will provide
 assistance to any competitor of Gaussian, Inc.  The licensee
 of this program is prohibited from giving any competitor of
 Gaussian, Inc. access to this program.  By using this program,
 the user acknowledges that Gaussian, Inc. is engaged in the
 business of creating and licensing software in the field of
 computational chemistry and represents and warrants to the
 licensee that it is not a competitor of Gaussian, Inc. and that
 it will not use this program in any manner prohibited above.
 ---------------------------------------------------------------
  

 Cite this work as:
 Gaussian 16, Revision A.03,
 M. J. Frisch, G. W. Trucks, H. B. Schlegel, G. E. Scuseria, 
 M. A. Robb, J. R. Cheeseman, G. Scalmani, V. Barone, 
 G. A. Petersson, H. Nakatsuji, X. Li, M. Caricato, A. V. Marenich, 
 J. Bloino, B. G. Janesko, R. Gomperts, B. Mennucci, H. P. Hratchian, 
 J. V. Ortiz, A. F. Izmaylov, J. L. Sonnenberg, D. Williams-Young, 
 F. Ding, F. Lipparini, F. Egidi, J. Goings, B. Peng, A. Petrone, 
 T. Henderson, D. Ranasinghe, V. G. Zakrzewski, J. Gao, N. Rega, 
 G. Zheng, W. Liang, M. Hada, M. Ehara, K. Toyota, R. Fukuda, 
 J. Hasegawa, M. Ishida, T. Nakajima, Y. Honda, O. Kitao, H. Nakai, 
 T. Vreven, K. Throssell, J. A. Montgomery, Jr., J. E. Peralta, 
 F. Ogliaro, M. J. Bearpark, J. J. Heyd, E. N. Brothers, K. N. Kudin, 
 V. N. Staroverov, T. A. Keith, R. Kobayashi, J. Normand, 
 K. Raghavachari, A. P. Rendell, J. C. Burant, S. S. Iyengar, 
 J. Tomasi, M. Cossi, J. M. Millam, M. Klene, C. Adamo, R. Cammi, 
 J. W. Ochterski, R. L. Martin, K. Morokuma, O. Farkas, 
 J. B. Foresman, and D. J. Fox, Gaussian, Inc., Wallingford CT, 2016.
 
 ******************************************
 Gaussian 16:  ES64L-G16RevA.03 25-Dec-2016
                23-Jan-2026 
 ******************************************
 %nprocshared=16
 Will use up to   16 processors via shared memory.
 %mem=16GB
 %chk=DDL-LR-16.chk
 ----------------------------------------------------------------------
 #p CAM-B3LYP TZVP em=gd3bj td(nstates=6,root=1) scrf=(Solvent=TetraHyd
 roFuran)
 ----------------------------------------------------------------------
 1/38=1,172=1/1;
 2/12=2,17=6,18=5,40=1/2;
 3/5=19,7=101,11=9,25=1,30=1,70=2201,72=20,74=-40,124=41/1,2,3,8;
 4//1;
 5/5=2,38=5,53=20/2;
 8/6=1,10=1,107=1,108=6/1;
 9/8=1,41=6,42=1,70=2/14;
 6/7=2,8=2,9=2,10=2/1;
 99/5=1,9=1/99;
 Leave Link    1 at Fri Jan 23 16:31:50 2026, MaxMem=  2147483648 cpu:               0.4 elap:               0.1
 (Enter /data/home/wyx/g16/l101.exe)
 -------------------
 Title Card Required
 -------------------
 Symbolic Z-matrix:
 Charge =  0 Multiplicity = 1
 O                     2.83419  -1.56304   0.17172 
 O                    -3.4167   -1.61615   0.11422 
 N                    -0.62962   1.50879  -0.39754 
 H                    -0.93797   2.46559  -0.45266 
 C                    -1.23544  -0.75683  -0.22748 
 C                     0.70523   1.2932   -0.12063 
 C                    -1.60663   0.54099  -0.3023 
 C                    -2.22586  -1.82538  -0.08503 
 C                     0.22442  -1.11735  -0.38419 
 H                     0.47887  -1.96832   0.2433 
 H                     0.43119  -1.45063  -1.40981 
 C                     1.15215   0.02177  -0.02374 
 C                     2.51145  -0.39231   0.33561 
 C                    -2.99921   1.08482  -0.28809 
 H                    -3.00164   2.1308   -0.59532 
 H                    -3.65133   0.51408  -0.94241 
 H                    -3.42642   1.01497   0.71204 
 C                    -1.73259  -3.24771  -0.19125 
 H                    -2.58791  -3.91708  -0.22915 
 H                    -1.10811  -3.39217  -1.07345 
 H                    -1.12215  -3.50092   0.67809 
 C                     3.52552   0.54636   0.94434 
 H                     4.04196   1.10486   0.16183 
 H                     3.08573   1.25868   1.63757 
 H                     4.26481  -0.05883   1.46358 
 C                     1.46858   2.57365   0.03597 
 H                     1.48484   2.8914    1.07976 
 H                     2.48982   2.49551  -0.31547 
 H                     0.98279   3.36123  -0.53952 
 
 ITRead=  0  0  0  0  0  0  0  0  0  0  0  0  0  0  0  0  0  0  0  0
 ITRead=  0  0  0  0  0  0  0  0  0
 MicOpt= -1 -1 -1 -1 -1 -1 -1 -1 -1 -1 -1 -1 -1 -1 -1 -1 -1 -1 -1 -1
 MicOpt= -1 -1 -1 -1 -1 -1 -1 -1 -1
 NAtoms=     29 NQM=       29 NQMF=       0 NMMI=      0 NMMIF=      0
                NMic=       0 NMicF=      0.
                    Isotopes and Nuclear Properties:
 (Nuclear quadrupole moments (NQMom) in fm**2, nuclear magnetic moments (NMagM)
  in nuclear magnetons)

  Atom         1           2           3           4           5           6           7           8           9          10
 IAtWgt=          16          16          14           1          12          12          12          12          12           1
 AtmWgt=  15.9949146  15.9949146  14.0030740   1.0078250  12.0000000  12.0000000  12.0000000  12.0000000  12.0000000   1.0078250
 NucSpn=           0           0           2           1           0           0           0           0           0           1
 AtZEff=  -0.0000000  -0.0000000  -0.0000000  -0.0000000  -0.0000000  -0.0000000  -0.0000000  -0.0000000  -0.0000000  -0.0000000
 NQMom=    0.0000000   0.0000000   2.0440000   0.0000000   0.0000000   0.0000000   0.0000000   0.0000000   0.0000000   0.0000000
 NMagM=    0.0000000   0.0000000   0.4037610   2.7928460   0.0000000   0.0000000   0.0000000   0.0000000   0.0000000   2.7928460
 AtZNuc=   8.0000000   8.0000000   7.0000000   1.0000000   6.0000000   6.0000000   6.0000000   6.0000000   6.0000000   1.0000000

  Atom        11          12          13          14          15          16          17          18          19          20
 IAtWgt=           1          12          12          12           1           1           1          12           1           1
 AtmWgt=   1.0078250  12.0000000  12.0000000  12.0000000   1.0078250   1.0078250   1.0078250  12.0000000   1.0078250   1.0078250
 NucSpn=           1           0           0           0           1           1           1           0           1           1
 AtZEff=  -0.0000000  -0.0000000  -0.0000000  -0.0000000  -0.0000000  -0.0000000  -0.0000000  -0.0000000  -0.0000000  -0.0000000
 NQMom=    0.0000000   0.0000000   0.0000000   0.0000000   0.0000000   0.0000000   0.0000000   0.0000000   0.0000000   0.0000000
 NMagM=    2.7928460   0.0000000   0.0000000   0.0000000   2.7928460   2.7928460   2.7928460   0.0000000   2.7928460   2.7928460
 AtZNuc=   1.0000000   6.0000000   6.0000000   6.0000000   1.0000000   1.0000000   1.0000000   6.0000000   1.0000000   1.0000000

  Atom        21          22          23          24          25          26          27          28          29
 IAtWgt=           1          12           1           1           1          12           1           1           1
 AtmWgt=   1.0078250  12.0000000   1.0078250   1.0078250   1.0078250  12.0000000   1.0078250   1.0078250   1.0078250
 NucSpn=           1           0           1           1           1           0           1           1           1
 AtZEff=  -0.0000000  -0.0000000  -0.0000000  -0.0000000  -0.0000000  -0.0000000  -0.0000000  -0.0000000  -0.0000000
 NQMom=    0.0000000   0.0000000   0.0000000   0.0000000   0.0000000   0.0000000   0.0000000   0.0000000   0.0000000
 NMagM=    2.7928460   0.0000000   2.7928460   2.7928460   2.7928460   0.0000000   2.7928460   2.7928460   2.7928460
 AtZNuc=   1.0000000   6.0000000   1.0000000   1.0000000   1.0000000   6.0000000   1.0000000   1.0000000   1.0000000
 Leave Link  101 at Fri Jan 23 16:31:51 2026, MaxMem=  2147483648 cpu:               0.8 elap:               0.1
 (Enter /data/home/wyx/g16/l202.exe)
                          Input orientation:                          
 ---------------------------------------------------------------------
 Center     Atomic      Atomic             Coordinates (Angstroms)
 Number     Number       Type             X           Y           Z
 ---------------------------------------------------------------------
      1          8           0        2.834186   -1.563035    0.171720
      2          8           0       -3.416699   -1.616145    0.114221
      3          7           0       -0.629619    1.508785   -0.397542
      4          1           0       -0.937968    2.465585   -0.452661
      5          6           0       -1.235438   -0.756829   -0.227480
      6          6           0        0.705234    1.293201   -0.120626
      7          6           0       -1.606629    0.540993   -0.302298
      8          6           0       -2.225859   -1.825376   -0.085030
      9          6           0        0.224420   -1.117347   -0.384186
     10          1           0        0.478874   -1.968317    0.243302
     11          1           0        0.431192   -1.450627   -1.409812
     12          6           0        1.152149    0.021771   -0.023740
     13          6           0        2.511446   -0.392312    0.335612
     14          6           0       -2.999209    1.084820   -0.288085
     15          1           0       -3.001636    2.130796   -0.595318
     16          1           0       -3.651328    0.514082   -0.942405
     17          1           0       -3.426420    1.014968    0.712035
     18          6           0       -1.732591   -3.247712   -0.191248
     19          1           0       -2.587914   -3.917080   -0.229149
     20          1           0       -1.108105   -3.392168   -1.073454
     21          1           0       -1.122147   -3.500918    0.678086
     22          6           0        3.525521    0.546356    0.944339
     23          1           0        4.041963    1.104865    0.161825
     24          1           0        3.085731    1.258676    1.637572
     25          1           0        4.264812   -0.058829    1.463584
     26          6           0        1.468584    2.573653    0.035965
     27          1           0        1.484843    2.891396    1.079762
     28          1           0        2.489817    2.495514   -0.315468
     29          1           0        0.982789    3.361234   -0.539521
 ---------------------------------------------------------------------
                    Distance matrix (angstroms):
                    1          2          3          4          5
     1  O    0.000000
     2  O    6.251375   0.000000
     3  N    4.664556   4.218401   0.000000
     4  H    5.554167   4.808948   1.006769   0.000000
     5  C    4.167873   2.369195   2.351371   3.243940   0.000000
     6  C    3.574351   5.050721   1.380214   2.045689   2.824933
     7  C    4.936848   2.846592   1.378492   2.042981   1.351933
     8  C    5.073342   1.225389   3.709754   4.495126   1.463905
     9  C    2.705281   3.708768   2.761545   3.767391   1.511858
    10  H    2.390998   3.913589   3.705358   4.706516   2.151326
    11  H    2.878934   4.142021   3.302746   4.257635   2.157990
    12  C    2.319281   4.855530   2.350667   3.244193   2.519583
    13  C    1.225404   6.057201   3.744058   4.548341   3.806453
    14  C    6.422698   2.762492   2.409706   2.486425   2.550732
    15  H    6.949069   3.836051   2.460178   2.095510   3.404870
    16  H    6.900549   2.389430   3.227543   3.377948   2.821853
    17  H    6.792145   2.698190   3.049117   3.106960   2.970245
    18  C    4.881120   2.364644   4.887061   5.774212   2.540270
    19  H    5.924643   2.469633   5.770900   6.596263   3.437496
    20  H    4.520823   3.145542   4.970427   5.893013   2.770721
    21  H    4.434452   3.022463   5.147493   6.075497   2.891869
    22  C    2.350407   7.318465   4.471253   5.055471   5.073281
    23  H    2.928569   7.939635   4.722258   5.198929   5.609672
    24  H    3.189679   7.270955   4.243592   4.692106   5.119881
    25  H    2.445044   7.953089   5.465954   6.092092   5.796521
    26  C    4.358381   6.436344   2.392557   2.458033   4.298052
    27  H    4.742069   6.728693   2.926600   2.898215   4.734803
    28  H    4.102166   7.209529   3.272805   3.430660   4.946009
    29  H    5.308668   6.675116   2.459997   2.121094   4.687893
                    6          7          8          9         10
     6  C    0.000000
     7  C    2.437936   0.000000
     8  C    4.279964   2.455678   0.000000
     9  C    2.472122   2.471748   2.568008   0.000000
    10  H    3.289557   3.308117   2.728336   1.087492   0.000000
    11  H    3.043960   3.057099   2.992558   1.098061   1.732935
    12  C    1.351168   2.821000   3.850538   1.512677   2.117796
    13  C    2.512272   4.270425   4.967159   2.504850   2.573648
    14  C    3.714076   1.495068   3.018036   3.905196   4.658442
    15  H    3.829854   2.135270   4.063683   4.582843   5.442422
    16  H    4.501331   2.142721   2.870560   4.242003   4.962537
    17  H    4.223897   2.136624   3.184998   4.367734   4.936701
    18  C    5.154403   3.792425   1.509184   2.899236   2.591575
    19  H    6.164708   4.565379   2.127694   3.971368   3.664161
    20  H    5.113586   4.038931   2.163607   2.724981   2.505933
    21  H    5.192383   4.187233   2.146618   2.936507   2.258577
    22  C    3.105792   5.281392   6.305798   3.928123   4.012118
    23  H    3.353954   5.695608   6.923355   4.450841   4.706027
    24  H    2.959598   5.128002   6.379006   4.233213   4.376434
    25  H    4.124112   6.160515   6.902732   4.567218   4.412319
    26  C    1.498927   3.701765   5.745869   3.917646   4.653172
    27  H    2.145448   4.122097   6.113427   4.449925   5.032738
    28  H    2.160615   4.538854   6.400062   4.264916   4.927667
    29  H    2.128208   3.836029   6.115792   4.544991   5.410255
                   11         12         13         14         15
    11  H    0.000000
    12  C    2.146842   0.000000
    13  C    2.914445   1.465704   0.000000
    14  C    4.410716   4.293451   5.739184   0.000000
    15  H    5.027355   4.693465   6.134067   1.090167   0.000000
    16  H    4.554725   4.915252   6.358825   1.085880   1.776607
    17  H    5.046044   4.742478   6.113950   1.089784   1.770504
    18  C    3.065350   4.363405   5.142251   4.514923   5.540947
    19  H    4.073372   5.435514   6.224662   5.019127   6.073059
    20  H    2.500431   4.226775   4.907724   4.923058   5.858089
    21  H    3.312986   4.251390   4.794134   5.048350   6.072087
    22  C    4.370908   2.616345   1.509965   6.661900   6.890920
    23  H    4.694491   3.091691   2.148074   7.055560   7.158078
    24  H    4.865537   2.833484   2.179602   6.384738   6.542356
    25  H    4.989003   3.450696   2.111356   7.559251   7.863511
    26  C    4.400146   2.572119   3.158211   4.720467   4.536244
    27  H    5.114814   3.092434   3.520002   5.024086   4.849010
    28  H    4.583400   2.827342   2.960391   5.667470   5.510662
    29  H    4.920942   3.383301   4.146294   4.593647   4.170460
                   16         17         18         19         20
    16  H    0.000000
    17  H    1.743170   0.000000
    18  C    4.289159   4.674978   0.000000
    19  H    4.612459   5.090581   1.086769   0.000000
    20  H    4.663040   5.290123   1.090476   1.782756   0.000000
    21  H    5.014277   5.069916   1.092015   1.773341   1.754969
    22  C    7.420782   6.971588   6.582724   7.659858   6.407336
    23  H    7.794554   7.489163   7.239825   8.326347   6.947836
    24  H    7.252494   6.582106   6.846046   7.903376   6.824095
    25  H    8.293508   7.802110   6.991158   8.044333   6.812925
    26  C    5.604689   5.181470   6.647363   7.658660   6.592508
    27  H    6.010078   5.270361   7.046701   8.040892   7.130420
    28  H    6.483270   6.184629   7.129432   8.179986   6.941497
    29  H    5.453772   5.149027   7.153513   8.112959   7.089807
                   21         22         23         24         25
    21  H    0.000000
    22  C    6.168641   0.000000
    23  H    6.938861   1.091317   0.000000
    24  H    6.424997   1.086916   1.765182   0.000000
    25  H    6.440832   1.087389   1.760233   1.776604   0.000000
    26  C    6.635105   3.027551   2.965714   2.628588   4.097188
    27  H    6.915159   3.111578   3.251640   2.353671   4.071778
    28  H    7.070405   2.541459   2.137959   2.387310   3.583337
    29  H    7.280278   4.073189   3.865441   3.685492   5.145963
                   26         27         28         29
    26  C    0.000000
    27  H    1.091209   0.000000
    28  H    1.082833   1.764472   0.000000
    29  H    1.089709   1.759228   1.752371   0.000000
 Stoichiometry    C11H15NO2
 Framework group  C1[X(C11H15NO2)]
 Deg. of freedom    81
 Full point group                 C1      NOp   1
 Largest Abelian subgroup         C1      NOp   1
 Largest concise Abelian subgroup C1      NOp   1
                         Standard orientation:                         
 ---------------------------------------------------------------------
 Center     Atomic      Atomic             Coordinates (Angstroms)
 Number     Number       Type             X           Y           Z
 ---------------------------------------------------------------------
      1          8           0        2.288218   -2.276543   -0.181993
      2          8           0       -3.587161   -0.244219    0.473193
      3          7           0        0.026432    1.802057   -0.268162
      4          1           0        0.055309    2.808391   -0.261635
      5          6           0       -1.288722   -0.139131   -0.091803
      6          6           0        1.230534    1.137598   -0.151447
      7          6           0       -1.205503    1.210234   -0.088377
      8          6           0       -2.562577   -0.824320    0.133650
      9          6           0       -0.059177   -0.953762   -0.423932
     10          1           0       -0.046476   -1.879248    0.146989
     11          1           0       -0.079003   -1.270431   -1.475153
     12          6           0        1.229284   -0.213528   -0.140885
     13          6           0        2.397378   -1.078165    0.049499
     14          6           0       -2.324210    2.184095    0.099555
     15          1           0       -2.003644    3.188751   -0.176791
     16          1           0       -3.191715    1.905829   -0.491325
     17          1           0       -2.649333    2.196388    1.139638
     18          6           0       -2.591352   -2.319843   -0.066891
     19          1           0       -3.621737   -2.662814   -0.025097
     20          1           0       -2.142288   -2.606933   -1.018236
     21          1           0       -2.019826   -2.816749    0.719836
     22          6           0        3.723436   -0.571149    0.563793
     23          1           0        4.318444   -0.167264   -0.257069
     24          1           0        3.620364    0.200936    1.321848
     25          1           0        4.262333   -1.419665    0.978554
     26          6           0        2.392762    2.078530   -0.048228
     27          1           0        2.617923    2.305253    0.995150
     28          1           0        3.287845    1.687921   -0.515965
     29          1           0        2.147210    3.017972   -0.542818
 ---------------------------------------------------------------------
 Rotational constants (GHZ):           1.0782823           0.4906712           0.3474065
 Leave Link  202 at Fri Jan 23 16:31:51 2026, MaxMem=  2147483648 cpu:               0.1 elap:               0.0
 (Enter /data/home/wyx/g16/l301.exe)
 Standard basis: TZVP (5D, 7F)
 Ernie: Thresh=  0.10000D-02 Tol=  0.10000D-05 Strict=F.
 There are   370 symmetry adapted cartesian basis functions of A   symmetry.
 There are   356 symmetry adapted basis functions of A   symmetry.
   356 basis functions,   610 primitive gaussians,   370 cartesian basis functions
    52 alpha electrons       52 beta electrons
       nuclear repulsion energy       900.7283919506 Hartrees.
 IExCor=20419 DFT=T Ex+Corr=CAM-B3LYP ExCW=0 ScaHFX=  1.000000
 ScaDFX=  1.000000  1.000000  1.000000  0.810000 ScalE2=  1.000000  1.000000
 IRadAn=      5 IRanWt=     -1 IRanGd=            0 ICorTp=0 IEmpDi=141
 HFx  wShort=  0.000000 wLong=  0.330000 cFull=  0.190000 cShort=  0.000000 cLong=  0.460000
 DFx  wShort=  0.000000 wLong=  0.330000 cFull=  0.190000 cShort=  0.000000 cLong=  0.460000
 NAtoms=   29 NActive=   29 NUniq=   29 SFac= 1.00D+00 NAtFMM=   60 NAOKFM=F Big=F
 Integral buffers will be    131072 words long.
 Raffenetti 1 integral format.
 Two-electron integral symmetry is turned on.
 R6Disp:  Grimme-D3(BJ) Dispersion energy=       -0.0262127042 Hartrees.
 Nuclear repulsion after empirical dispersion term =      900.7021792464 Hartrees.
 ------------------------------------------------------------------------------
 Polarizable Continuum Model (PCM)
 =================================
 Model                : PCM.
 Atomic radii         : UFF (Universal Force Field).
 Polarization charges : Total charges.
 Charge compensation  : None.
 Solution method      : On-the-fly selection.
 Cavity type          : Scaled VdW (van der Waals Surface) (Alpha=1.100).
 Cavity algorithm     : GePol (No added spheres)
                        Default sphere list used, NSphG=   29.
                        Lebedev-Laikov grids with approx.  5.0 points / Ang**2.
                        Smoothing algorithm: York/Karplus (Gamma=1.0000).
                        Polarization charges: spherical gaussians, with
                                              point-specific exponents (IZeta= 3).
                        Self-potential: point-specific (ISelfS= 7).
                        Self-field    : sphere-specific E.n sum rule (ISelfD= 2).
 Solvent              : TetraHydroFuran, Eps=   7.425700 Eps(inf)=   1.974025
 ------------------------------------------------------------------------------
 GePol: Number of generator spheres                  =      29
 GePol: Total number of spheres                      =      29
 GePol: Number of exposed spheres                    =      29 (100.00%)
 GePol: Number of points                             =    2087
 GePol: Average weight of points                     =       0.13
 GePol: Minimum weight of points                     =   0.28D-10
 GePol: Maximum weight of points                     =    0.20577
 GePol: Number of points with low weight             =     143
 GePol: Fraction of low-weight points (<1% of avg)   =       6.85%
 GePol: Cavity surface area                          =    268.837 Ang**2
 GePol: Cavity volume                                =    286.879 Ang**3
 Leave Link  301 at Fri Jan 23 16:31:51 2026, MaxMem=  2147483648 cpu:               0.6 elap:               0.0
 (Enter /data/home/wyx/g16/l302.exe)
 NPDir=0 NMtPBC=     1 NCelOv=     1 NCel=       1 NClECP=     1 NCelD=      1
         NCelK=      1 NCelE2=     1 NClLst=     1 CellRange=     0.0.
 One-electron integrals computed using PRISM.
 One-electron integral symmetry used in STVInt
 NBasis=   356 RedAO= T EigKep=  4.74D-05  NBF=   356
 NBsUse=   356 1.00D-06 EigRej= -1.00D+00 NBFU=   356
 Precomputing XC quadrature grid using
 IXCGrd= 4 IRadAn=           5 IRanWt=          -1 IRanGd=           0 AccXCQ= 0.00D+00.
 Generated NRdTot=       0 NPtTot=           0 NUsed=           0 NTot=          32
 NSgBfM=   366   366   366   366   366 MxSgAt=    29 MxSgA2=    29.
 Leave Link  302 at Fri Jan 23 16:31:51 2026, MaxMem=  2147483648 cpu:               3.1 elap:               0.2
 (Enter /data/home/wyx/g16/l303.exe)
 DipDrv:  MaxL=1.
 Leave Link  303 at Fri Jan 23 16:31:52 2026, MaxMem=  2147483648 cpu:               0.6 elap:               0.0
 (Enter /data/home/wyx/g16/l308.exe)
 Leave Link  308 at Fri Jan 23 16:31:52 2026, MaxMem=  2147483648 cpu:               0.7 elap:               0.1
 (Enter /data/home/wyx/g16/l401.exe)
 ExpMin= 9.52D-02 ExpMax= 2.70D+04 ExpMxC= 9.22D+02 IAcc=3 IRadAn=         5 AccDes= 0.00D+00
 Harris functional with IExCor=20419 and IRadAn=       5 diagonalized for initial guess.
 HarFok:  IExCor=20419 AccDes= 0.00D+00 IRadAn=         5 IDoV= 1 UseB2=F ITyADJ=14
 ICtDFT=  3500011 ScaDFX=  1.000000  1.000000  1.000000  1.000000
 FoFCou: FMM=F IPFlag=           0 FMFlag=      100000 FMFlg1=           0
         NFxFlg=           0 DoJE=T BraDBF=F KetDBF=T FulRan=T
         wScrn=  0.000000 ICntrl=       500 IOpCl=  0 I1Cent=   200000004 NGrid=           0
         NMat0=    1 NMatS0=      1 NMatT0=    0 NMatD0=    1 NMtDS0=    0 NMtDT0=    0
 Petite list used in FoFCou.
 Harris En= -608.713288205460    
 JPrj=0 DoOrth=F DoCkMO=F.
 Leave Link  401 at Fri Jan 23 16:31:53 2026, MaxMem=  2147483648 cpu:              11.8 elap:               0.8
 (Enter /data/home/wyx/g16/l502.exe)
 Integral symmetry usage will be decided dynamically.
 Closed shell SCF:
 Using DIIS extrapolation, IDIIS=  1040.
 NGot=  2147483648 LenX=  2147200095 LenY=  2147062754
 Requested convergence on RMS density matrix=1.00D-08 within 128 cycles.
 Requested convergence on MAX density matrix=1.00D-06.
 Requested convergence on             energy=1.00D-06.
 No special actions if energy rises.
 Fock matrices will be formed incrementally for  20 cycles.

 Cycle   1  Pass 1  IDiag  1:
 FoFJK:  IHMeth= 1 ICntrl=       0 DoSepK=T KAlg= 0 I1Cent=           0 FoldK=F
 IRaf=         1 NMat=       1 IRICut=       1 DoRegI=T DoRafI=F ISym2E= 0 IDoP0=0 IntGTp=1.
 FoFCou: FMM=F IPFlag=           0 FMFlag=      100000 FMFlg1=           0
         NFxFlg=           0 DoJE=T BraDBF=F KetDBF=F FulRan=T
         wScrn=  0.000000 ICntrl=       500 IOpCl=  0 I1Cent=           0 NGrid=           0
         NMat0=    1 NMatS0=      1 NMatT0=    0 NMatD0=    1 NMtDS0=    0 NMtDT0=    0
 Symmetry not used in FoFCou.
 Inv3:  Mode=1 IEnd=    13066707.
 Iteration    1 A*A^-1 deviation from unit magnitude is 3.11D-15 for    192.
 Iteration    1 A*A^-1 deviation from orthogonality  is 1.57D-15 for    122     73.
 Iteration    1 A^-1*A deviation from unit magnitude is 3.11D-15 for   1105.
 Iteration    1 A^-1*A deviation from orthogonality  is 1.56D-15 for   1722   1502.
 E= -633.131763610730    
 DIIS: error= 4.13D-02 at cycle   1 NSaved=   1.
 NSaved= 1 IEnMin= 1 EnMin= -633.131763610730     IErMin= 1 ErrMin= 4.13D-02
 ErrMax= 4.13D-02  0.00D+00 EMaxC= 1.00D-01 BMatC= 1.09D+00 BMatP= 1.09D+00
 IDIUse=3 WtCom= 5.87D-01 WtEn= 4.13D-01
 Coeff-Com:  0.100D+01
 Coeff-En:   0.100D+01
 Coeff:      0.100D+01
 Gap=     0.235 Goal=   None    Shift=    0.000
 GapD=    0.235 DampG=1.000 DampE=0.500 DampFc=0.5000 IDamp=-1.
 Damping current iteration by 5.00D-01
 RMSDP=4.03D-03 MaxDP=1.87D-01              OVMax= 1.44D-01

 Cycle   2  Pass 1  IDiag  1:
 RMSU=  1.80D-03    CP:  9.32D-01
 E= -633.227168984395     Delta-E=       -0.095405373665 Rises=F Damp=T
 DIIS: error= 1.89D-02 at cycle   2 NSaved=   2.
 NSaved= 2 IEnMin= 2 EnMin= -633.227168984395     IErMin= 2 ErrMin= 1.89D-02
 ErrMax= 1.89D-02  0.00D+00 EMaxC= 1.00D-01 BMatC= 2.23D-01 BMatP= 1.09D+00
 IDIUse=3 WtCom= 8.11D-01 WtEn= 1.89D-01
 Coeff-Com: -0.595D+00 0.160D+01
 Coeff-En:   0.000D+00 0.100D+01
 Coeff:     -0.483D+00 0.148D+01
 Gap=     0.249 Goal=   None    Shift=    0.000
 RMSDP=1.50D-03 MaxDP=4.40D-02 DE=-9.54D-02 OVMax= 1.38D-01

 Cycle   3  Pass 1  IDiag  1:
 RMSU=  1.40D-03    CP:  9.08D-01  1.23D+00
 E= -633.275195236196     Delta-E=       -0.048026251801 Rises=F Damp=F
 DIIS: error= 9.99D-03 at cycle   3 NSaved=   3.
 NSaved= 3 IEnMin= 3 EnMin= -633.275195236196     IErMin= 3 ErrMin= 9.99D-03
 ErrMax= 9.99D-03  0.00D+00 EMaxC= 1.00D-01 BMatC= 6.44D-02 BMatP= 2.23D-01
 IDIUse=3 WtCom= 9.00D-01 WtEn= 9.99D-02
 Coeff-Com: -0.366D+00 0.801D+00 0.565D+00
 Coeff-En:   0.000D+00 0.000D+00 0.100D+01
 Coeff:     -0.329D+00 0.721D+00 0.608D+00
 Gap=     0.246 Goal=   None    Shift=    0.000
 RMSDP=1.30D-03 MaxDP=6.94D-02 DE=-4.80D-02 OVMax= 7.72D-02

 Cycle   4  Pass 1  IDiag  1:
 RMSU=  5.28D-04    CP:  8.63D-01  1.69D+00  5.69D-01
 E= -633.324278419988     Delta-E=       -0.049083183792 Rises=F Damp=F
 DIIS: error= 3.62D-03 at cycle   4 NSaved=   4.
 NSaved= 4 IEnMin= 4 EnMin= -633.324278419988     IErMin= 4 ErrMin= 3.62D-03
 ErrMax= 3.62D-03  0.00D+00 EMaxC= 1.00D-01 BMatC= 5.99D-03 BMatP= 6.44D-02
 IDIUse=3 WtCom= 9.64D-01 WtEn= 3.62D-02
 Coeff-Com: -0.170D+00 0.367D+00 0.350D+00 0.452D+00
 Coeff-En:   0.000D+00 0.000D+00 0.000D+00 0.100D+01
 Coeff:     -0.164D+00 0.354D+00 0.338D+00 0.472D+00
 Gap=     0.240 Goal=   None    Shift=    0.000
 RMSDP=2.95D-04 MaxDP=1.90D-02 DE=-4.91D-02 OVMax= 1.46D-02

 Cycle   5  Pass 1  IDiag  1:
 RMSU=  9.98D-05    CP:  8.72D-01  1.64D+00  6.86D-01  6.91D-01
 E= -633.328891154962     Delta-E=       -0.004612734974 Rises=F Damp=F
 DIIS: error= 4.08D-04 at cycle   5 NSaved=   5.
 NSaved= 5 IEnMin= 5 EnMin= -633.328891154962     IErMin= 5 ErrMin= 4.08D-04
 ErrMax= 4.08D-04  0.00D+00 EMaxC= 1.00D-01 BMatC= 6.23D-05 BMatP= 5.99D-03
 IDIUse=3 WtCom= 9.96D-01 WtEn= 4.08D-03
 Coeff-Com: -0.268D-01 0.571D-01 0.656D-01 0.142D+00 0.763D+00
 Coeff-En:   0.000D+00 0.000D+00 0.000D+00 0.000D+00 0.100D+01
 Coeff:     -0.267D-01 0.568D-01 0.653D-01 0.141D+00 0.763D+00
 Gap=     0.241 Goal=   None    Shift=    0.000
 RMSDP=1.06D-04 MaxDP=5.54D-03 DE=-4.61D-03 OVMax= 1.83D-03

 Cycle   6  Pass 1  IDiag  1:
 RMSU=  5.04D-05    CP:  8.68D-01  1.66D+00  6.96D-01  8.04D-01  1.14D+00
 E= -633.328929118577     Delta-E=       -0.000037963615 Rises=F Damp=F
 DIIS: error= 3.49D-04 at cycle   6 NSaved=   6.
 NSaved= 6 IEnMin= 6 EnMin= -633.328929118577     IErMin= 6 ErrMin= 3.49D-04
 ErrMax= 3.49D-04  0.00D+00 EMaxC= 1.00D-01 BMatC= 2.45D-05 BMatP= 6.23D-05
 IDIUse=3 WtCom= 9.97D-01 WtEn= 3.49D-03
 Coeff-Com:  0.175D-01-0.381D-01-0.291D-01-0.873D-02 0.448D+00 0.610D+00
 Coeff-En:   0.000D+00 0.000D+00 0.000D+00 0.000D+00 0.145D+00 0.855D+00
 Coeff:      0.174D-01-0.380D-01-0.290D-01-0.870D-02 0.447D+00 0.611D+00
 Gap=     0.241 Goal=   None    Shift=    0.000
 RMSDP=2.34D-05 MaxDP=9.02D-04 DE=-3.80D-05 OVMax= 2.72D-03

 Cycle   7  Pass 1  IDiag  1:
 RMSU=  1.77D-05    CP:  8.68D-01  1.67D+00  6.98D-01  8.05D-01  1.24D+00
                    CP:  8.04D-01
 E= -633.328951298691     Delta-E=       -0.000022180114 Rises=F Damp=F
 DIIS: error= 4.06D-05 at cycle   7 NSaved=   7.
 NSaved= 7 IEnMin= 7 EnMin= -633.328951298691     IErMin= 7 ErrMin= 4.06D-05
 ErrMax= 4.06D-05  0.00D+00 EMaxC= 1.00D-01 BMatC= 8.59D-07 BMatP= 2.45D-05
 IDIUse=1 WtCom= 1.00D+00 WtEn= 0.00D+00
 Coeff-Com:  0.432D-02-0.931D-02-0.791D-02-0.110D-01 0.795D-02 0.153D+00
 Coeff-Com:  0.863D+00
 Coeff:      0.432D-02-0.931D-02-0.791D-02-0.110D-01 0.795D-02 0.153D+00
 Coeff:      0.863D+00
 Gap=     0.241 Goal=   None    Shift=    0.000
 RMSDP=1.50D-05 MaxDP=8.17D-04 DE=-2.22D-05 OVMax= 5.70D-04

 Cycle   8  Pass 1  IDiag  1:
 RMSU=  4.56D-06    CP:  8.67D-01  1.67D+00  7.00D-01  8.20D-01  1.29D+00
                    CP:  9.35D-01  1.04D+00
 E= -633.328952553723     Delta-E=       -0.000001255031 Rises=F Damp=F
 DIIS: error= 2.21D-05 at cycle   8 NSaved=   8.
 NSaved= 8 IEnMin= 8 EnMin= -633.328952553723     IErMin= 8 ErrMin= 2.21D-05
 ErrMax= 2.21D-05  0.00D+00 EMaxC= 1.00D-01 BMatC= 1.12D-07 BMatP= 8.59D-07
 IDIUse=1 WtCom= 1.00D+00 WtEn= 0.00D+00
 Coeff-Com: -0.318D-03 0.755D-03 0.239D-03-0.422D-02-0.602D-01-0.790D-02
 Coeff-Com:  0.303D+00 0.769D+00
 Coeff:     -0.318D-03 0.755D-03 0.239D-03-0.422D-02-0.602D-01-0.790D-02
 Coeff:      0.303D+00 0.769D+00
 Gap=     0.241 Goal=   None    Shift=    0.000
 RMSDP=3.96D-06 MaxDP=2.23D-04 DE=-1.26D-06 OVMax= 3.72D-04

 Cycle   9  Pass 1  IDiag  1:
 RMSU=  1.31D-06    CP:  8.67D-01  1.67D+00  7.01D-01  8.24D-01  1.30D+00
                    CP:  9.65D-01  1.14D+00  1.21D+00
 E= -633.328952740640     Delta-E=       -0.000000186918 Rises=F Damp=F
 DIIS: error= 4.85D-06 at cycle   9 NSaved=   9.
 NSaved= 9 IEnMin= 9 EnMin= -633.328952740640     IErMin= 9 ErrMin= 4.85D-06
 ErrMax= 4.85D-06  0.00D+00 EMaxC= 1.00D-01 BMatC= 1.62D-08 BMatP= 1.12D-07
 IDIUse=1 WtCom= 1.00D+00 WtEn= 0.00D+00
 Coeff-Com: -0.861D-03 0.188D-02 0.154D-02 0.380D-03-0.225D-01-0.199D-01
 Coeff-Com: -0.351D-01 0.269D+00 0.805D+00
 Coeff:     -0.861D-03 0.188D-02 0.154D-02 0.380D-03-0.225D-01-0.199D-01
 Coeff:     -0.351D-01 0.269D+00 0.805D+00
 Gap=     0.241 Goal=   None    Shift=    0.000
 RMSDP=1.75D-06 MaxDP=1.02D-04 DE=-1.87D-07 OVMax= 1.08D-04

 Cycle  10  Pass 1  IDiag  1:
 RMSU=  7.56D-07    CP:  8.67D-01  1.67D+00  7.01D-01  8.25D-01  1.31D+00
                    CP:  9.83D-01  1.16D+00  1.33D+00  1.17D+00
 E= -633.328952765019     Delta-E=       -0.000000024379 Rises=F Damp=F
 DIIS: error= 1.41D-06 at cycle  10 NSaved=  10.
 NSaved=10 IEnMin=10 EnMin= -633.328952765019     IErMin=10 ErrMin= 1.41D-06
 ErrMax= 1.41D-06  0.00D+00 EMaxC= 1.00D-01 BMatC= 1.05D-09 BMatP= 1.62D-08
 IDIUse=1 WtCom= 1.00D+00 WtEn= 0.00D+00
 Coeff-Com: -0.206D-03 0.444D-03 0.400D-03 0.304D-03-0.258D-02-0.373D-02
 Coeff-Com: -0.346D-01 0.252D-01 0.229D+00 0.786D+00
 Coeff:     -0.206D-03 0.444D-03 0.400D-03 0.304D-03-0.258D-02-0.373D-02
 Coeff:     -0.346D-01 0.252D-01 0.229D+00 0.786D+00
 Gap=     0.241 Goal=   None    Shift=    0.000
 RMSDP=3.69D-07 MaxDP=1.45D-05 DE=-2.44D-08 OVMax= 2.89D-05

 Cycle  11  Pass 1  IDiag  1:
 RMSU=  2.38D-07    CP:  8.67D-01  1.67D+00  7.01D-01  8.25D-01  1.31D+00
                    CP:  9.85D-01  1.17D+00  1.38D+00  1.25D+00  9.26D-01
 E= -633.328952766401     Delta-E=       -0.000000001382 Rises=F Damp=F
 DIIS: error= 9.51D-07 at cycle  11 NSaved=  11.
 NSaved=11 IEnMin=11 EnMin= -633.328952766401     IErMin=11 ErrMin= 9.51D-07
 ErrMax= 9.51D-07  0.00D+00 EMaxC= 1.00D-01 BMatC= 3.42D-10 BMatP= 1.05D-09
 IDIUse=1 WtCom= 1.00D+00 WtEn= 0.00D+00
 Coeff-Com:  0.119D-04-0.289D-04-0.163D-05 0.110D-03 0.193D-02 0.114D-02
 Coeff-Com: -0.141D-01-0.260D-01-0.397D-02 0.420D+00 0.621D+00
 Coeff:      0.119D-04-0.289D-04-0.163D-05 0.110D-03 0.193D-02 0.114D-02
 Coeff:     -0.141D-01-0.260D-01-0.397D-02 0.420D+00 0.621D+00
 Gap=     0.241 Goal=   None    Shift=    0.000
 RMSDP=1.71D-07 MaxDP=1.31D-05 DE=-1.38D-09 OVMax= 8.03D-06

 Cycle  12  Pass 1  IDiag  1:
 RMSU=  8.82D-08    CP:  8.67D-01  1.67D+00  7.01D-01  8.25D-01  1.31D+00
                    CP:  9.86D-01  1.17D+00  1.39D+00  1.27D+00  1.04D+00
                    CP:  8.40D-01
 E= -633.328952766716     Delta-E=       -0.000000000315 Rises=F Damp=F
 DIIS: error= 3.03D-07 at cycle  12 NSaved=  12.
 NSaved=12 IEnMin=12 EnMin= -633.328952766716     IErMin=12 ErrMin= 3.03D-07
 ErrMax= 3.03D-07  0.00D+00 EMaxC= 1.00D-01 BMatC= 3.21D-11 BMatP= 3.42D-10
 IDIUse=1 WtCom= 1.00D+00 WtEn= 0.00D+00
 Coeff-Com:  0.228D-04-0.506D-04-0.337D-04 0.275D-04 0.117D-02 0.914D-03
 Coeff-Com: -0.369D-02-0.143D-01-0.260D-01 0.134D+00 0.303D+00 0.605D+00
 Coeff:      0.228D-04-0.506D-04-0.337D-04 0.275D-04 0.117D-02 0.914D-03
 Coeff:     -0.369D-02-0.143D-01-0.260D-01 0.134D+00 0.303D+00 0.605D+00
 Gap=     0.241 Goal=   None    Shift=    0.000
 RMSDP=3.91D-08 MaxDP=2.14D-06 DE=-3.15D-10 OVMax= 1.96D-06

 Cycle  13  Pass 1  IDiag  1:
 RMSU=  2.32D-08    CP:  8.67D-01  1.67D+00  7.01D-01  8.25D-01  1.31D+00
                    CP:  9.86D-01  1.17D+00  1.39D+00  1.28D+00  1.04D+00
                    CP:  9.41D-01  9.57D-01
 E= -633.328952766749     Delta-E=       -0.000000000033 Rises=F Damp=F
 DIIS: error= 7.00D-08 at cycle  13 NSaved=  13.
 NSaved=13 IEnMin=13 EnMin= -633.328952766749     IErMin=13 ErrMin= 7.00D-08
 ErrMax= 7.00D-08  0.00D+00 EMaxC= 1.00D-01 BMatC= 2.94D-12 BMatP= 3.21D-11
 IDIUse=1 WtCom= 1.00D+00 WtEn= 0.00D+00
 Coeff-Com:  0.622D-05-0.133D-04-0.127D-04-0.127D-04 0.567D-04 0.967D-04
 Coeff-Com:  0.130D-02 0.215D-03-0.977D-02-0.305D-01-0.117D-01 0.213D+00
 Coeff-Com:  0.837D+00
 Coeff:      0.622D-05-0.133D-04-0.127D-04-0.127D-04 0.567D-04 0.967D-04
 Coeff:      0.130D-02 0.215D-03-0.977D-02-0.305D-01-0.117D-01 0.213D+00
 Coeff:      0.837D+00
 Gap=     0.241 Goal=   None    Shift=    0.000
 RMSDP=1.86D-08 MaxDP=1.46D-06 DE=-3.31D-11 OVMax= 1.57D-06

 Cycle  14  Pass 1  IDiag  1:
 RMSU=  1.07D-08    CP:  8.67D-01  1.67D+00  7.01D-01  8.25D-01  1.31D+00
                    CP:  9.86D-01  1.17D+00  1.39D+00  1.28D+00  1.05D+00
                    CP:  9.72D-01  1.08D+00  1.04D+00
 E= -633.328952766758     Delta-E=       -0.000000000009 Rises=F Damp=F
 DIIS: error= 3.47D-08 at cycle  14 NSaved=  14.
 NSaved=14 IEnMin=14 EnMin= -633.328952766758     IErMin=14 ErrMin= 3.47D-08
 ErrMax= 3.47D-08  0.00D+00 EMaxC= 1.00D-01 BMatC= 2.05D-13 BMatP= 2.94D-12
 IDIUse=1 WtCom= 1.00D+00 WtEn= 0.00D+00
 Coeff-Com: -0.983D-06 0.227D-05 0.106D-05-0.429D-05-0.879D-04-0.547D-04
 Coeff-Com:  0.494D-03 0.139D-02 0.739D-03-0.151D-01-0.271D-01-0.260D-01
 Coeff-Com:  0.110D+00 0.956D+00
 Coeff:     -0.983D-06 0.227D-05 0.106D-05-0.429D-05-0.879D-04-0.547D-04
 Coeff:      0.494D-03 0.139D-02 0.739D-03-0.151D-01-0.271D-01-0.260D-01
 Coeff:      0.110D+00 0.956D+00
 Gap=     0.241 Goal=   None    Shift=    0.000
 RMSDP=6.55D-09 MaxDP=4.05D-07 DE=-9.09D-12 OVMax= 8.34D-07

 Error on total polarization charges =  0.01420
 SCF Done:  E(RCAM-B3LYP) =  -633.328952767     A.U. after   14 cycles
            NFock= 14  Conv=0.66D-08     -V/T= 2.0042
 KE= 6.307042779291D+02 PE=-3.277490884552D+03 EE= 1.112755474610D+03
 Leave Link  502 at Fri Jan 23 16:32:48 2026, MaxMem=  2147483648 cpu:             876.8 elap:              55.3
 (Enter /data/home/wyx/g16/l801.exe)
 DoSCS=F DFT=T ScalE2(SS,OS)=  1.000000  1.000000
 ExpMin= 9.52D-02 ExpMax= 2.70D+04 ExpMxC= 9.22D+02 IAcc=3 IRadAn=         5 AccDes= 0.00D+00
 HarFok:  IExCor=  205 AccDes= 0.00D+00 IRadAn=         5 IDoV=-2 UseB2=F ITyADJ=14
 ICtDFT= 12500011 ScaDFX=  1.000000  1.000000  1.000000  1.000000
 Largest valence mixing into a core orbital is  5.65D-05
 Largest core mixing into a valence orbital is  1.21D-05
 Range of M.O.s used for correlation:    15   356
 NBasis=   356 NAE=    52 NBE=    52 NFC=    14 NFV=     0
 NROrb=    342 NOA=    38 NOB=    38 NVA=   304 NVB=   304

 **** Warning!!: The largest alpha MO coefficient is  0.49905965D+02

 Leave Link  801 at Fri Jan 23 16:32:49 2026, MaxMem=  2147483648 cpu:               1.0 elap:               0.1
 (Enter /data/home/wyx/g16/l914.exe)
 RHF ground state
 Two-electron integrals replicated using symmetry.
 MDV=  2147483648 DFT=T DoStab=F Mixed=T DoRPA=T DoScal=F NonHer=T
 NEqPCM:  Using non-equilibrium solvation (IEInf=1, Eps=   7.4257, EpsInf=   1.9740)
 Inv3:  Mode=1 IEnd=    13066707.
 Iteration    1 A*A^-1 deviation from unit magnitude is 3.11D-15 for    387.
 Iteration    1 A*A^-1 deviation from orthogonality  is 1.79D-15 for   1348     14.
 Iteration    1 A^-1*A deviation from unit magnitude is 3.11D-15 for    387.
 Iteration    1 A^-1*A deviation from orthogonality  is 2.33D-15 for   1326    456.
 Making orbital integer symmetry assigments:
 Orbital symmetries:
       Occupied  (A) (A) (A) (A) (A) (A) (A) (A) (A) (A) (A) (A)
                 (A) (A) (A) (A) (A) (A) (A) (A) (A) (A) (A) (A)
                 (A) (A) (A) (A) (A) (A) (A) (A) (A) (A) (A) (A)
                 (A) (A) (A) (A) (A) (A) (A) (A) (A) (A) (A) (A)
                 (A) (A) (A) (A)
       Virtual   (A) (A) (A) (A) (A) (A) (A) (A) (A) (A) (A) (A)
                 (A) (A) (A) (A) (A) (A) (A) (A) (A) (A) (A) (A)
                 (A) (A) (A) (A) (A) (A) (A) (A) (A) (A) (A) (A)
                 (A) (A) (A) (A) (A) (A) (A) (A) (A) (A) (A) (A)
                 (A) (A) (A) (A) (A) (A) (A) (A) (A) (A) (A) (A)
                 (A) (A) (A) (A) (A) (A) (A) (A) (A) (A) (A) (A)
                 (A) (A) (A) (A) (A) (A) (A) (A) (A) (A) (A) (A)
                 (A) (A) (A) (A) (A) (A) (A) (A) (A) (A) (A) (A)
                 (A) (A) (A) (A) (A) (A) (A) (A) (A) (A) (A) (A)
                 (A) (A) (A) (A) (A) (A) (A) (A) (A) (A) (A) (A)
                 (A) (A) (A) (A) (A) (A) (A) (A) (A) (A) (A) (A)
                 (A) (A) (A) (A) (A) (A) (A) (A) (A) (A) (A) (A)
                 (A) (A) (A) (A) (A) (A) (A) (A) (A) (A) (A) (A)
                 (A) (A) (A) (A) (A) (A) (A) (A) (A) (A) (A) (A)
                 (A) (A) (A) (A) (A) (A) (A) (A) (A) (A) (A) (A)
                 (A) (A) (A) (A) (A) (A) (A) (A) (A) (A) (A) (A)
                 (A) (A) (A) (A) (A) (A) (A) (A) (A) (A) (A) (A)
                 (A) (A) (A) (A) (A) (A) (A) (A) (A) (A) (A) (A)
                 (A) (A) (A) (A) (A) (A) (A) (A) (A) (A) (A) (A)
                 (A) (A) (A) (A) (A) (A) (A) (A) (A) (A) (A) (A)
                 (A) (A) (A) (A) (A) (A) (A) (A) (A) (A) (A) (A)
                 (A) (A) (A) (A) (A) (A) (A) (A) (A) (A) (A) (A)
                 (A) (A) (A) (A) (A) (A) (A) (A) (A) (A) (A) (A)
                 (A) (A) (A) (A) (A) (A) (A) (A) (A) (A) (A) (A)
                 (A) (A) (A) (A) (A) (A) (A) (A) (A) (A) (A) (A)
                 (A) (A) (A) (A)
    24 initial guesses have been made.
 Convergence on wavefunction:    0.001000000000000
 Davidson Disk Diagonalization:  ConvIn= 1.00D-03 SkipCon=T Conv= 1.00D-03.
 Max sub-space:  2000 roots to seek:    24 dimension of matrix:        23104
 Iteration     1 Dimension    24 NMult     0 NNew     24
 CISAX will form    24 AO SS matrices at one time.
 NMat=    24 NSing=    24 JSym2X= 0.
 FoFJK:  IHMeth= 1 ICntrl=       0 DoSepK=T KAlg= 0 I1Cent=           0 FoldK=F
 IRaf=         1 NMat=      48 IRICut=       1 DoRegI=T DoRafI=F ISym2E= 0 IDoP0=3 IntGTp=3.
 New state      2 was old state      3
 New state      3 was old state      4
 New state      4 was old state      2
 New state      5 was old state      6
 New state      6 was old state      5
 Excitation Energies [eV] at current iteration:
 Root      1 :     4.026151267107400
 Root      2 :     4.360991664044913
 Root      3 :     4.538961196903649
 Root      4 :     5.584782558879815
 Root      5 :     6.233029583275459
 Root      6 :     6.495454778676342
 Root      7 :     6.774428726380161
 Root      8 :     6.818280119476240
 Root      9 :     7.030735004270897
 Root     10 :     7.107010780953359
 Root     11 :     7.263318071290287
 Root     12 :     7.478932902711363
 Root     13 :     7.629458464127340
 Root     14 :     7.702190954383097
 Root     15 :     7.787160696090621
 Root     16 :     8.066246188549666
 Root     17 :     8.138745198560159
 Root     18 :     8.271685493773647
 Root     19 :     8.312359533353311
 Root     20 :     8.599294079599046
 Root     21 :     8.709468675690252
 Root     22 :     9.010603371525947
 Root     23 :     9.090575824687207
 Root     24 :     9.155708583478345
 Iteration     2 Dimension    36 NMult    24 NNew     12
 CISAX will form    12 AO SS matrices at one time.
 NMat=    12 NSing=    12 JSym2X= 0.
 Root      1 not converged, maximum delta is    0.055775644953337
 Root      2 not converged, maximum delta is    0.072689573760096
 Root      3 not converged, maximum delta is    0.090860550148145
 Root      4 not converged, maximum delta is    0.275874860919314
 New state      5 was old state      6
 Root      5 not converged, maximum delta is    0.276182900563005
 New state      6 was old state      5
 Root      6 not converged, maximum delta is    0.174418390970125
 Excitation Energies [eV] at current iteration:
 Root      1 :     3.592731307968688   Change is   -0.433419959138712
 Root      2 :     4.116382548157183   Change is   -0.244609115887730
 Root      3 :     4.260597194805791   Change is   -0.278364002097858
 Root      4 :     5.228611427370524   Change is   -0.356171131509291
 Root      5 :     5.694168614304905   Change is   -0.801286164371437
 Root      6 :     6.106212638006862   Change is   -0.126816945268597
 Iteration     3 Dimension    48 NMult    36 NNew     12
 CISAX will form    12 AO SS matrices at one time.
 NMat=    12 NSing=    12 JSym2X= 0.
 Root      1 not converged, maximum delta is    0.009108762023638
 Root      2 not converged, maximum delta is    0.013101818852993
 Root      3 not converged, maximum delta is    0.013556287363074
 Root      4 not converged, maximum delta is    0.019836884287969
 Root      5 not converged, maximum delta is    0.020358885303438
 Root      6 not converged, maximum delta is    0.018674856297287
 Excitation Energies [eV] at current iteration:
 Root      1 :     3.575484279355021   Change is   -0.017247028613667
 Root      2 :     4.102526884738772   Change is   -0.013855663418410
 Root      3 :     4.246162646061993   Change is   -0.014434548743798
 Root      4 :     5.206415179364599   Change is   -0.022196248005924
 Root      5 :     5.667673380549370   Change is   -0.026495233755534
 Root      6 :     6.095613936666370   Change is   -0.010598701340492
 Iteration     4 Dimension    60 NMult    48 NNew     12
 CISAX will form    12 AO SS matrices at one time.
 NMat=    12 NSing=    12 JSym2X= 0.
 Root      1 not converged, maximum delta is    0.002304840196010
 Root      2 not converged, maximum delta is    0.002014932265277
 Root      3 not converged, maximum delta is    0.002124235294646
 Root      4 not converged, maximum delta is    0.002505297048464
 Root      5 not converged, maximum delta is    0.002713123415618
 Root      6 not converged, maximum delta is    0.003644399190428
 Excitation Energies [eV] at current iteration:
 Root      1 :     3.574006249145981   Change is   -0.001478030209040
 Root      2 :     4.101679955182747   Change is   -0.000846929556024
 Root      3 :     4.245339322311283   Change is   -0.000823323750710
 Root      4 :     5.204767862973885   Change is   -0.001647316390715
 Root      5 :     5.665439200134219   Change is   -0.002234180415153
 Root      6 :     6.094839810617707   Change is   -0.000774126048663
 Iteration     5 Dimension    72 NMult    60 NNew     12
 CISAX will form    12 AO SS matrices at one time.
 NMat=    12 NSing=    12 JSym2X= 0.
 Root      1 has converged.
 Root      2 has converged.
 Root      3 has converged.
 Root      4 has converged.
 Root      5 not converged, maximum delta is    0.001138772414175
 Root      6 has converged.
 Excitation Energies [eV] at current iteration:
 Root      1 :     3.573925178709142   Change is   -0.000081070436839
 Root      2 :     4.101631327128006   Change is   -0.000048628054741
 Root      3 :     4.245291008756473   Change is   -0.000048313554810
 Root      4 :     5.204618194289691   Change is   -0.000149668684194
 Root      5 :     5.665214708742089   Change is   -0.000224491392130
 Root      6 :     6.094781066714217   Change is   -0.000058743903489
 Iteration     6 Dimension    74 NMult    72 NNew      2
 CISAX will form     2 AO SS matrices at one time.
 NMat=     2 NSing=     2 JSym2X= 0.
 Root      1 has converged.
 Root      2 has converged.
 Root      3 has converged.
 Root      4 has converged.
 Root      5 has converged.
 Root      6 has converged.
 Excitation Energies [eV] at current iteration:
 Root      1 :     3.573925137451146   Change is   -0.000000041257996
 Root      2 :     4.101631307458180   Change is   -0.000000019669826
 Root      3 :     4.245290972610399   Change is   -0.000000036146074
 Root      4 :     5.204613607961211   Change is   -0.000004586328480
 Root      5 :     5.665199737565419   Change is   -0.000014971176669
 Root      6 :     6.094780853666573   Change is   -0.000000213047645
 Convergence achieved on expansion vectors.
 ***********************************************************************
 Excited states from <AA,BB:AA,BB> singles matrix:
 ***********************************************************************
 
 1PDM for each excited state written to RWF  633
 Ground to excited state transition densities written to RWF  633
 Ground to excited state transition electric dipole moments (Au):
       state          X           Y           Z        Dip. S.      Osc.
         1        -1.4604      0.1545      0.0385      2.1581      0.1890
         2        -0.1900     -0.0027      0.0446      0.0381      0.0038
         3        -0.0018      0.1173     -0.0361      0.0151      0.0016
         4        -0.1604     -1.3458      0.1291      1.8537      0.2364
         5        -0.0676     -1.4654      0.0549      2.1550      0.2991
         6         0.0303      0.2140      0.0861      0.0541      0.0081
 Ground to excited state transition velocity dipole moments (Au):
       state          X           Y           Z        Dip. S.      Osc.
         1         0.1838     -0.0156     -0.0060      0.0341      0.1730
         2         0.0276      0.0007     -0.0040      0.0008      0.0034
         3         0.0005     -0.0171      0.0022      0.0003      0.0013
         4         0.0325      0.2451     -0.0195      0.0615      0.2143
         5         0.0146      0.2987     -0.0116      0.0896      0.2868
         6        -0.0073     -0.0443     -0.0381      0.0035      0.0103
 Ground to excited state transition magnetic dipole moments (Au):
       state          X           Y           Z
         1        -0.1118      0.0158     -1.4151
         2         0.8014     -0.1503     -0.4244
         3         0.1512     -1.0009     -0.1706
         4         0.0512     -0.0862      0.0341
         5         0.2237     -0.1110      0.2767
         6        -0.0781     -0.0022      0.0003
 Ground to excited state transition velocity quadrupole moments (Au):
       state          XX          YY          ZZ          XY          XZ          YZ
         1        -0.1459      0.0868     -0.0003     -0.5286      0.0649      0.0087
         2        -0.0010     -0.0039      0.0032     -0.0755      0.0239      0.0802
         3         0.0035     -0.0075      0.0287     -0.0420      0.0616      0.0058
         4        -1.1047      0.2515     -0.0151      0.0414      0.0757     -0.0581
         5        -0.7001      0.2824      0.0534      0.1919      0.0768      0.0358
         6        -0.1758     -0.1964      0.1846      0.0103      0.0289      0.0032
 <0|del|b> * <b|rxdel|0> + <0|del|b> * <b|delr+rdel|0>
 Rotatory Strengths (R) in cgs (10**-40 erg-esu-cm/Gauss)
       state          XX          YY          ZZ    R(velocity)    E-M Angle
         1        33.4163    -36.7420    -63.0423    -22.1227       92.70
         2         4.4045     60.2577     46.4148     37.0257       22.37
         3        40.2228     -0.4483     36.6398     25.4714       18.09
         4       -76.0757     -0.1529      1.8103    -24.8061      140.04
         5      -104.4894      4.7857    -12.6718    -37.4585      107.25
         6         1.5332      1.4627     -0.9286      0.6891       81.82
 1/2[<0|r|b>*<b|rxdel|0> + (<0|rxdel|b>*<b|r|0>)*]
 Rotatory Strengths (R) in cgs (10**-40 erg-esu-cm/Gauss)
       state          XX          YY          ZZ     R(length)
         1      -115.5035     -1.7228     38.5095    -26.2389
         2       107.7073     -0.2888     13.3755     40.2647
         3         0.1938     83.0142     -4.3533     26.2849
         4         5.8047    -82.0496     -3.1169    -26.4539
         5        10.6952   -115.0314    -10.7434    -38.3599
         6         1.6706      0.3361     -0.0182      0.6628
  1/2[<0|del|b>*<b|r|0> + (<0|r|b>*<b|del|0>)*] (Au)
       state          X           Y           Z        Dip. S.   Osc.(frdel)
         1        -0.2685     -0.0024     -0.0002      0.2711      0.1807
         2        -0.0052     -0.0000     -0.0002      0.0054      0.0036
         3        -0.0000     -0.0020     -0.0001      0.0021      0.0014
         4        -0.0052     -0.3298     -0.0025      0.3375      0.2250
         5        -0.0010     -0.4377     -0.0006      0.4393      0.2929
         6        -0.0002     -0.0095     -0.0033      0.0130      0.0086

 Excitation energies and oscillator strengths:
 
 Excited State   1:      Singlet-A      3.5739 eV  346.91 nm  f=0.1890  <S**2>=0.000
      52 -> 53         0.69712
 This state for optimization and/or second-order correction.
 Total Energy, E(TD-HF/TD-DFT) =  -633.197613435    
 Copying the excited state density for this state as the 1-particle RhoCI density.
 
 Excited State   2:      Singlet-A      4.1016 eV  302.28 nm  f=0.0038  <S**2>=0.000
      50 -> 54         0.19508
      51 -> 53         0.55594
      51 -> 54         0.33349
 
 Excited State   3:      Singlet-A      4.2453 eV  292.05 nm  f=0.0016  <S**2>=0.000
      49 -> 53         0.20471
      49 -> 54        -0.14435
      50 -> 53         0.53159
      50 -> 54        -0.26730
      50 -> 58         0.11159
      51 -> 54         0.21056
 
 Excited State   4:      Singlet-A      5.2046 eV  238.22 nm  f=0.2364  <S**2>=0.000
      52 -> 54         0.69686
 
 Excited State   5:      Singlet-A      5.6652 eV  218.85 nm  f=0.2991  <S**2>=0.000
      49 -> 53         0.62878
      50 -> 53        -0.23091
      51 -> 53         0.15561
 
 Excited State   6:      Singlet-A      6.0948 eV  203.43 nm  f=0.0081  <S**2>=0.000
      52 -> 55         0.66525
      52 -> 56         0.12003
 SavETr:  write IOETrn=   770 NScale= 10 NData=  16 NLR=1 NState=    6 LETran=     118.
 Leave Link  914 at Fri Jan 23 16:34:58 2026, MaxMem=  2147483648 cpu:            2065.4 elap:             129.8
 (Enter /data/home/wyx/g16/l601.exe)
 Copying SCF densities to generalized density rwf, IOpCl= 0 IROHF=0.

 **********************************************************************

            Population analysis using the SCF density.

 **********************************************************************

 Orbital symmetries:
       Occupied  (A) (A) (A) (A) (A) (A) (A) (A) (A) (A) (A) (A)
                 (A) (A) (A) (A) (A) (A) (A) (A) (A) (A) (A) (A)
                 (A) (A) (A) (A) (A) (A) (A) (A) (A) (A) (A) (A)
                 (A) (A) (A) (A) (A) (A) (A) (A) (A) (A) (A) (A)
                 (A) (A) (A) (A)
       Virtual   (A) (A) (A) (A) (A) (A) (A) (A) (A) (A) (A) (A)
                 (A) (A) (A) (A) (A) (A) (A) (A) (A) (A) (A) (A)
                 (A) (A) (A) (A) (A) (A) (A) (A) (A) (A) (A) (A)
                 (A) (A) (A) (A) (A) (A) (A) (A) (A) (A) (A) (A)
                 (A) (A) (A) (A) (A) (A) (A) (A) (A) (A) (A) (A)
                 (A) (A) (A) (A) (A) (A) (A) (A) (A) (A) (A) (A)
                 (A) (A) (A) (A) (A) (A) (A) (A) (A) (A) (A) (A)
                 (A) (A) (A) (A) (A) (A) (A) (A) (A) (A) (A) (A)
                 (A) (A) (A) (A) (A) (A) (A) (A) (A) (A) (A) (A)
                 (A) (A) (A) (A) (A) (A) (A) (A) (A) (A) (A) (A)
                 (A) (A) (A) (A) (A) (A) (A) (A) (A) (A) (A) (A)
                 (A) (A) (A) (A) (A) (A) (A) (A) (A) (A) (A) (A)
                 (A) (A) (A) (A) (A) (A) (A) (A) (A) (A) (A) (A)
                 (A) (A) (A) (A) (A) (A) (A) (A) (A) (A) (A) (A)
                 (A) (A) (A) (A) (A) (A) (A) (A) (A) (A) (A) (A)
                 (A) (A) (A) (A) (A) (A) (A) (A) (A) (A) (A) (A)
                 (A) (A) (A) (A) (A) (A) (A) (A) (A) (A) (A) (A)
                 (A) (A) (A) (A) (A) (A) (A) (A) (A) (A) (A) (A)
                 (A) (A) (A) (A) (A) (A) (A) (A) (A) (A) (A) (A)
                 (A) (A) (A) (A) (A) (A) (A) (A) (A) (A) (A) (A)
                 (A) (A) (A) (A) (A) (A) (A) (A) (A) (A) (A) (A)
                 (A) (A) (A) (A) (A) (A) (A) (A) (A) (A) (A) (A)
                 (A) (A) (A) (A) (A) (A) (A) (A) (A) (A) (A) (A)
                 (A) (A) (A) (A) (A) (A) (A) (A) (A) (A) (A) (A)
                 (A) (A) (A) (A) (A) (A) (A) (A) (A) (A) (A) (A)
                 (A) (A) (A) (A)
 The electronic state is 1-A.
 Alpha  occ. eigenvalues --  -19.17892 -19.17407 -14.44051 -10.33474 -10.33076
 Alpha  occ. eigenvalues --  -10.31947 -10.31385 -10.25935 -10.25061 -10.24848
 Alpha  occ. eigenvalues --  -10.24821 -10.24498 -10.24292 -10.23765  -1.12110
 Alpha  occ. eigenvalues --   -1.11608  -1.07375  -0.91195  -0.90195  -0.83792
 Alpha  occ. eigenvalues --   -0.82501  -0.81570  -0.78469  -0.74010  -0.71021
 Alpha  occ. eigenvalues --   -0.68545  -0.61516  -0.58176  -0.56745  -0.55162
 Alpha  occ. eigenvalues --   -0.54516  -0.53976  -0.52573  -0.51917  -0.50747
 Alpha  occ. eigenvalues --   -0.50023  -0.49493  -0.49104  -0.48611  -0.48137
 Alpha  occ. eigenvalues --   -0.46862  -0.45352  -0.45083  -0.43382  -0.43069
 Alpha  occ. eigenvalues --   -0.42403  -0.42067  -0.42002  -0.32818  -0.32225
 Alpha  occ. eigenvalues --   -0.31226  -0.26266
 Alpha virt. eigenvalues --   -0.02136   0.02476   0.06304   0.08089   0.08539
 Alpha virt. eigenvalues --    0.10078   0.10723   0.11954   0.12625   0.13491
 Alpha virt. eigenvalues --    0.14284   0.14867   0.15619   0.16039   0.16878
 Alpha virt. eigenvalues --    0.17467   0.17817   0.17879   0.18128   0.19169
 Alpha virt. eigenvalues --    0.19883   0.22008   0.22587   0.23453   0.23573
 Alpha virt. eigenvalues --    0.23895   0.24815   0.25508   0.25897   0.26366
 Alpha virt. eigenvalues --    0.26831   0.27159   0.28738   0.29163   0.30119
 Alpha virt. eigenvalues --    0.31551   0.31938   0.32778   0.33573   0.34232
 Alpha virt. eigenvalues --    0.35436   0.35793   0.36781   0.37991   0.38984
 Alpha virt. eigenvalues --    0.40194   0.40882   0.41759   0.42281   0.42718
 Alpha virt. eigenvalues --    0.43927   0.44095   0.45399   0.45937   0.46152
 Alpha virt. eigenvalues --    0.47168   0.47653   0.47908   0.48329   0.48940
 Alpha virt. eigenvalues --    0.49407   0.50246   0.50612   0.51276   0.51624
 Alpha virt. eigenvalues --    0.52869   0.53099   0.53332   0.54158   0.54449
 Alpha virt. eigenvalues --    0.54505   0.55833   0.56196   0.56662   0.58010
 Alpha virt. eigenvalues --    0.58506   0.59128   0.60478   0.61133   0.62237
 Alpha virt. eigenvalues --    0.63188   0.65463   0.65850   0.66541   0.67889
 Alpha virt. eigenvalues --    0.68560   0.69978   0.71231   0.72304   0.73022
 Alpha virt. eigenvalues --    0.73496   0.73818   0.75005   0.76173   0.77511
 Alpha virt. eigenvalues --    0.78167   0.79781   0.81718   0.83545   0.84176
 Alpha virt. eigenvalues --    0.89183   0.93028   0.98709   0.99940   1.24916
 Alpha virt. eigenvalues --    1.25849   1.27227   1.27490   1.29304   1.31639
 Alpha virt. eigenvalues --    1.32352   1.32974   1.33994   1.35302   1.35880
 Alpha virt. eigenvalues --    1.36517   1.37035   1.38032   1.39262   1.39842
 Alpha virt. eigenvalues --    1.39956   1.40206   1.41138   1.41657   1.41783
 Alpha virt. eigenvalues --    1.43148   1.44068   1.44784   1.45218   1.46806
 Alpha virt. eigenvalues --    1.48096   1.48860   1.49542   1.50605   1.51064
 Alpha virt. eigenvalues --    1.52297   1.52504   1.54245   1.54420   1.57521
 Alpha virt. eigenvalues --    1.58254   1.60438   1.60680   1.61168   1.62170
 Alpha virt. eigenvalues --    1.62462   1.63361   1.64224   1.65222   1.65610
 Alpha virt. eigenvalues --    1.67047   1.67462   1.67727   1.68029   1.68587
 Alpha virt. eigenvalues --    1.68792   1.69859   1.70634   1.72232   1.72444
 Alpha virt. eigenvalues --    1.73110   1.75074   1.75966   1.76792   1.78740
 Alpha virt. eigenvalues --    1.79603   1.83253   1.84381   1.85982   1.86490
 Alpha virt. eigenvalues --    1.86937   1.87173   1.88485   1.88981   1.90738
 Alpha virt. eigenvalues --    1.91535   1.94333   1.95214   1.97899   1.99530
 Alpha virt. eigenvalues --    2.00683   2.03655   2.04230   2.06113   2.09277
 Alpha virt. eigenvalues --    2.11279   2.12851   2.14250   2.16301   2.19295
 Alpha virt. eigenvalues --    2.20373   2.21069   2.21774   2.22446   2.25874
 Alpha virt. eigenvalues --    2.26762   2.27061   2.28752   2.30213   2.31039
 Alpha virt. eigenvalues --    2.32641   2.34653   2.35934   2.36056   2.37748
 Alpha virt. eigenvalues --    2.39423   2.40067   2.41456   2.43920   2.44649
 Alpha virt. eigenvalues --    2.45759   2.47627   2.49981   2.50327   2.51672
 Alpha virt. eigenvalues --    2.52989   2.53365   2.54869   2.56687   2.58580
 Alpha virt. eigenvalues --    2.58962   2.59829   2.60535   2.61224   2.62470
 Alpha virt. eigenvalues --    2.64330   2.65425   2.66883   2.67685   2.69129
 Alpha virt. eigenvalues --    2.70296   2.71923   2.72703   2.73438   2.74611
 Alpha virt. eigenvalues --    2.75912   2.76566   2.77348   2.78092   2.79335
 Alpha virt. eigenvalues --    2.80680   2.81200   2.82778   2.83500   2.84530
 Alpha virt. eigenvalues --    2.85545   2.85838   2.87489   2.90470   2.91631
 Alpha virt. eigenvalues --    2.97764   3.00066   3.01204   3.03294   3.09936
 Alpha virt. eigenvalues --    3.11926   3.15046   3.16273   3.16788   3.19974
 Alpha virt. eigenvalues --    3.20507   3.22182   3.25250   3.26623   3.27001
 Alpha virt. eigenvalues --    3.27673   3.29360   3.33262   3.34802   3.36407
 Alpha virt. eigenvalues --    3.36932   3.38628   3.39633   3.40037   3.41331
 Alpha virt. eigenvalues --    3.42574   3.44549   3.45338   3.46326   3.47854
 Alpha virt. eigenvalues --    3.48072   3.49159   3.55132   3.57967   3.59543
 Alpha virt. eigenvalues --    3.60292   3.89566   3.99068   4.34584   4.36048
 Alpha virt. eigenvalues --   21.62814  21.78900  22.08199  22.10982  22.11513
 Alpha virt. eigenvalues --   22.14155  22.15129  22.17748  22.21107  22.25051
 Alpha virt. eigenvalues --   22.30831  31.93375  43.62780  43.65127
          Condensed to atoms (all electrons):
               1          2          3          4          5          6
     1  O    7.935910   0.000000  -0.000246   0.000018   0.015526   0.018913
     2  O    0.000000   7.965658   0.000457   0.000037  -0.197906   0.000829
     3  N   -0.000246   0.000457   6.411699   0.375849  -0.113106   0.325800
     4  H    0.000018   0.000037   0.375849   0.412353   0.017184  -0.048102
     5  C    0.015526  -0.197906  -0.113106   0.017184   6.911491  -0.047651
     6  C    0.018913   0.000829   0.325800  -0.048102  -0.047651   5.660003
     7  C   -0.000517  -0.029844   0.369504  -0.041524   0.345234  -0.085885
     8  C   -0.000080   0.710655   0.005005  -0.000590  -0.199694   0.023971
     9  C   -0.031543   0.017009   0.015897  -0.000245  -0.419579  -0.152781
    10  H    0.017881  -0.000021  -0.001250   0.000020  -0.102594   0.024567
    11  H    0.002961   0.000073   0.003832   0.000000  -0.032391  -0.014109
    12  C   -0.213755  -0.002098  -0.093129   0.014603   0.119686  -0.201185
    13  C    0.707466  -0.000029  -0.000021   0.000357   0.072583   0.195264
    14  C   -0.000004  -0.011235  -0.036023  -0.008332  -0.068742   0.008555
    15  H   -0.000000   0.004314   0.002209   0.001313   0.018339   0.006564
    16  H   -0.000000   0.001430   0.001811   0.000748  -0.010722  -0.000764
    17  H   -0.000000   0.001229  -0.002935   0.000898  -0.003850  -0.002053
    18  C   -0.000140  -0.105531  -0.000599   0.000020  -0.274638   0.000635
    19  H   -0.000004   0.009472   0.000002  -0.000001   0.024467   0.000029
    20  H    0.000073   0.003263   0.000116   0.000000   0.038907  -0.001011
    21  H    0.000026   0.001210   0.000011  -0.000000   0.005756   0.000246
    22  C   -0.106605   0.000000  -0.000094   0.000118   0.004123  -0.004396
    23  H    0.001119  -0.000000  -0.000045  -0.000017  -0.000104   0.011502
    24  H    0.004635  -0.000000  -0.000100  -0.000050  -0.000543  -0.035717
    25  H    0.007919   0.000000   0.000033  -0.000002  -0.000134  -0.001452
    26  C    0.000906   0.000002  -0.031732  -0.005230   0.000056   0.171953
    27  H   -0.000042  -0.000000  -0.002284   0.000411   0.000396  -0.036192
    28  H   -0.000245   0.000000   0.003546   0.000913   0.000047  -0.044535
    29  H    0.000026  -0.000000  -0.000485   0.000748  -0.000612  -0.049990
               7          8          9         10         11         12
     1  O   -0.000517  -0.000080  -0.031543   0.017881   0.002961  -0.213755
     2  O   -0.029844   0.710655   0.017009  -0.000021   0.000073  -0.002098
     3  N    0.369504   0.005005   0.015897  -0.001250   0.003832  -0.093129
     4  H   -0.041524  -0.000590  -0.000245   0.000020   0.000000   0.014603
     5  C    0.345234  -0.199694  -0.419579  -0.102594  -0.032391   0.119686
     6  C   -0.085885   0.023971  -0.152781   0.024567  -0.014109  -0.201185
     7  C    5.443760  -0.163321  -0.162761   0.018243  -0.003789  -0.005177
     8  C   -0.163321   5.304824   0.065507  -0.009140  -0.004361  -0.026360
     9  C   -0.162761   0.065507   6.195113   0.518666   0.395214   0.076172
    10  H    0.018243  -0.009140   0.518666   0.498709  -0.032402  -0.103361
    11  H   -0.003789  -0.004361   0.395214  -0.032402   0.548872  -0.022775
    12  C   -0.005177  -0.026360   0.076172  -0.103361  -0.022775   7.233018
    13  C    0.009740  -0.004663  -0.256896  -0.001609   0.001620  -0.371529
    14  C    0.254385  -0.039752   0.010519   0.000474  -0.001301  -0.004707
    15  H   -0.072143   0.005576  -0.000153  -0.000002   0.000072  -0.001204
    16  H   -0.029820  -0.007534  -0.000612  -0.000050   0.000186  -0.000084
    17  H   -0.026001  -0.002357   0.000633   0.000050  -0.000067   0.000993
    18  C    0.003074   0.307801   0.002303   0.008641  -0.008511  -0.004694
    19  H    0.000179  -0.052501   0.000268   0.000501  -0.000065  -0.000189
    20  H   -0.000188  -0.059140  -0.009146  -0.004571   0.002043   0.006435
    21  H    0.001639  -0.027247  -0.009626  -0.002797   0.001066  -0.003792
    22  C   -0.000148  -0.000035   0.001578   0.001482   0.001350  -0.254765
    23  H    0.000046   0.000003  -0.001892  -0.000116   0.000135  -0.011465
    24  H    0.000020  -0.000012   0.003365  -0.000096  -0.000109   0.067089
    25  H    0.000007   0.000003   0.000259  -0.000152  -0.000027   0.022740
    26  C    0.001732   0.000349   0.018055   0.000018  -0.000740  -0.073535
    27  H   -0.000736  -0.000008  -0.000109   0.000041  -0.000025  -0.020453
    28  H   -0.000824   0.000002  -0.000890   0.000002  -0.000096  -0.008315
    29  H    0.003887  -0.000005  -0.000513  -0.000009   0.000113   0.024527
              13         14         15         16         17         18
     1  O    0.707466  -0.000004  -0.000000  -0.000000  -0.000000  -0.000140
     2  O   -0.000029  -0.011235   0.004314   0.001430   0.001229  -0.105531
     3  N   -0.000021  -0.036023   0.002209   0.001811  -0.002935  -0.000599
     4  H    0.000357  -0.008332   0.001313   0.000748   0.000898   0.000020
     5  C    0.072583  -0.068742   0.018339  -0.010722  -0.003850  -0.274638
     6  C    0.195264   0.008555   0.006564  -0.000764  -0.002053   0.000635
     7  C    0.009740   0.254385  -0.072143  -0.029820  -0.026001   0.003074
     8  C   -0.004663  -0.039752   0.005576  -0.007534  -0.002357   0.307801
     9  C   -0.256896   0.010519  -0.000153  -0.000612   0.000633   0.002303
    10  H   -0.001609   0.000474  -0.000002  -0.000050   0.000050   0.008641
    11  H    0.001620  -0.001301   0.000072   0.000186  -0.000067  -0.008511
    12  C   -0.371529  -0.004707  -0.001204  -0.000084   0.000993  -0.004694
    13  C    5.406193  -0.000068  -0.000013  -0.000001  -0.000024   0.000369
    14  C   -0.000068   5.066750   0.382520   0.427566   0.410703   0.001548
    15  H   -0.000013   0.382520   0.583740  -0.027955  -0.026623   0.000307
    16  H   -0.000001   0.427566  -0.027955   0.506213  -0.025957  -0.000273
    17  H   -0.000024   0.410703  -0.026623  -0.025957   0.510355  -0.000122
    18  C    0.000369   0.001548   0.000307  -0.000273  -0.000122   5.362785
    19  H   -0.000014   0.000067  -0.000006   0.000026  -0.000017   0.390093
    20  H    0.000408   0.000052  -0.000017  -0.000040   0.000007   0.380802
    21  H   -0.000011  -0.000284  -0.000007   0.000030  -0.000007   0.396164
    22  C    0.278493  -0.000026   0.000002  -0.000000   0.000000   0.000022
    23  H   -0.021390  -0.000000   0.000000  -0.000000   0.000000  -0.000002
    24  H   -0.090705  -0.000002   0.000000   0.000000   0.000000   0.000003
    25  H   -0.040742   0.000000   0.000000   0.000000  -0.000000  -0.000001
    26  C   -0.052279   0.001443   0.000047   0.000061  -0.000196   0.000028
    27  H    0.006176  -0.000097   0.000001   0.000004  -0.000014  -0.000001
    28  H   -0.005420   0.000096  -0.000012  -0.000001   0.000001  -0.000000
    29  H   -0.000538  -0.000280   0.000129  -0.000005   0.000004   0.000000
              19         20         21         22         23         24
     1  O   -0.000004   0.000073   0.000026  -0.106605   0.001119   0.004635
     2  O    0.009472   0.003263   0.001210   0.000000  -0.000000  -0.000000
     3  N    0.000002   0.000116   0.000011  -0.000094  -0.000045  -0.000100
     4  H   -0.000001   0.000000  -0.000000   0.000118  -0.000017  -0.000050
     5  C    0.024467   0.038907   0.005756   0.004123  -0.000104  -0.000543
     6  C    0.000029  -0.001011   0.000246  -0.004396   0.011502  -0.035717
     7  C    0.000179  -0.000188   0.001639  -0.000148   0.000046   0.000020
     8  C   -0.052501  -0.059140  -0.027247  -0.000035   0.000003  -0.000012
     9  C    0.000268  -0.009146  -0.009626   0.001578  -0.001892   0.003365
    10  H    0.000501  -0.004571  -0.002797   0.001482  -0.000116  -0.000096
    11  H   -0.000065   0.002043   0.001066   0.001350   0.000135  -0.000109
    12  C   -0.000189   0.006435  -0.003792  -0.254765  -0.011465   0.067089
    13  C   -0.000014   0.000408  -0.000011   0.278493  -0.021390  -0.090705
    14  C    0.000067   0.000052  -0.000284  -0.000026  -0.000000  -0.000002
    15  H   -0.000006  -0.000017  -0.000007   0.000002   0.000000   0.000000
    16  H    0.000026  -0.000040   0.000030  -0.000000  -0.000000   0.000000
    17  H   -0.000017   0.000007  -0.000007   0.000000   0.000000   0.000000
    18  C    0.390093   0.380802   0.396164   0.000022  -0.000002   0.000003
    19  H    0.505085  -0.020490  -0.010025  -0.000000   0.000000   0.000000
    20  H   -0.020490   0.536502  -0.026604   0.000013  -0.000000  -0.000000
    21  H   -0.010025  -0.026604   0.504976  -0.000013   0.000000  -0.000000
    22  C   -0.000000   0.000013  -0.000013   5.420988   0.399891   0.399769
    23  H    0.000000  -0.000000   0.000000   0.399891   0.495436  -0.027293
    24  H    0.000000  -0.000000  -0.000000   0.399769  -0.027293   0.539434
    25  H   -0.000000  -0.000000  -0.000000   0.385191  -0.007702  -0.021610
    26  C    0.000000  -0.000014   0.000006  -0.026451  -0.016017   0.015161
    27  H   -0.000000  -0.000000   0.000000  -0.010679   0.001134  -0.001297
    28  H   -0.000000  -0.000000  -0.000000   0.008943  -0.000562  -0.010925
    29  H    0.000000   0.000000  -0.000000   0.001986   0.000237   0.000750
              25         26         27         28         29
     1  O    0.007919   0.000906  -0.000042  -0.000245   0.000026
     2  O    0.000000   0.000002  -0.000000   0.000000  -0.000000
     3  N    0.000033  -0.031732  -0.002284   0.003546  -0.000485
     4  H   -0.000002  -0.005230   0.000411   0.000913   0.000748
     5  C   -0.000134   0.000056   0.000396   0.000047  -0.000612
     6  C   -0.001452   0.171953  -0.036192  -0.044535  -0.049990
     7  C    0.000007   0.001732  -0.000736  -0.000824   0.003887
     8  C    0.000003   0.000349  -0.000008   0.000002  -0.000005
     9  C    0.000259   0.018055  -0.000109  -0.000890  -0.000513
    10  H   -0.000152   0.000018   0.000041   0.000002  -0.000009
    11  H   -0.000027  -0.000740  -0.000025  -0.000096   0.000113
    12  C    0.022740  -0.073535  -0.020453  -0.008315   0.024527
    13  C   -0.040742  -0.052279   0.006176  -0.005420  -0.000538
    14  C    0.000000   0.001443  -0.000097   0.000096  -0.000280
    15  H    0.000000   0.000047   0.000001  -0.000012   0.000129
    16  H    0.000000   0.000061   0.000004  -0.000001  -0.000005
    17  H   -0.000000  -0.000196  -0.000014   0.000001   0.000004
    18  C   -0.000001   0.000028  -0.000001  -0.000000   0.000000
    19  H   -0.000000   0.000000  -0.000000  -0.000000   0.000000
    20  H   -0.000000  -0.000014  -0.000000  -0.000000   0.000000
    21  H   -0.000000   0.000006   0.000000  -0.000000  -0.000000
    22  C    0.385191  -0.026451  -0.010679   0.008943   0.001986
    23  H   -0.007702  -0.016017   0.001134  -0.000562   0.000237
    24  H   -0.021610   0.015161  -0.001297  -0.010925   0.000750
    25  H    0.491765   0.001836   0.000093   0.000931  -0.000044
    26  C    0.001836   5.257427   0.430117   0.426884   0.389736
    27  H    0.000093   0.430117   0.481247  -0.023941  -0.019913
    28  H    0.000931   0.426884  -0.023941   0.509811  -0.027028
    29  H   -0.000044   0.389736  -0.019913  -0.027028   0.524625
 Mulliken charges:
               1
     1  O   -0.360198
     2  O   -0.368975
     3  N   -0.233721
     4  H    0.278505
     5  C   -0.101527
     6  C    0.276992
     7  C    0.171227
     8  C    0.173104
     9  C   -0.273816
    10  H    0.168876
    11  H    0.163234
    12  C   -0.142692
    13  C    0.167281
    14  C   -0.393825
    15  H    0.123001
    16  H    0.165745
    17  H    0.165350
    18  C   -0.460084
    19  H    0.153122
    20  H    0.152601
    21  H    0.169284
    22  C   -0.500735
    23  H    0.177103
    24  H    0.158234
    25  H    0.161090
    26  C   -0.509620
    27  H    0.196171
    28  H    0.171620
    29  H    0.152654
 Sum of Mulliken charges =  -0.00000
 Mulliken charges with hydrogens summed into heavy atoms:
               1
     1  O   -0.360198
     2  O   -0.368975
     3  N    0.044783
     5  C   -0.101527
     6  C    0.276992
     7  C    0.171227
     8  C    0.173104
     9  C    0.058293
    12  C   -0.142692
    13  C    0.167281
    14  C    0.060272
    18  C    0.014923
    22  C   -0.004308
    26  C    0.010825
 Electronic spatial extent (au):  <R**2>=           3181.5988
 Charge=             -0.0000 electrons
 Dipole moment (field-independent basis, Debye):
    X=              3.7974    Y=              6.8782    Z=             -0.3399  Tot=              7.8642
 Quadrupole moment (field-independent basis, Debye-Ang):
   XX=            -96.9210   YY=            -78.9922   ZZ=            -85.0214
   XY=             12.1391   XZ=              5.6489   YZ=             -1.3977
 Traceless Quadrupole moment (field-independent basis, Debye-Ang):
   XX=             -9.9428   YY=              7.9860   ZZ=              1.9568
   XY=             12.1391   XZ=              5.6489   YZ=             -1.3977
 Octapole moment (field-independent basis, Debye-Ang**2):
  XXX=            103.4364  YYY=             60.3203  ZZZ=              2.1194  XYY=            -33.1876
  XXY=             28.3041  XXZ=            -10.6087  XZZ=              2.5353  YZZ=             -1.5626
  YYZ=              3.0776  XYZ=             -5.1159
 Hexadecapole moment (field-independent basis, Debye-Ang**3):
 XXXX=          -3002.1437 YYYY=          -1276.7904 ZZZZ=           -161.8701 XXXY=             34.3194
 XXXZ=             65.1504 YYYX=             83.3316 YYYZ=            -21.6843 ZZZX=             -2.4282
 ZZZY=              6.2586 XXYY=           -690.1234 XXZZ=           -487.0489 YYZZ=           -243.0465
 XXYZ=             -6.5246 YYXZ=              6.0928 ZZXY=             -1.7333
 N-N= 9.007021792464D+02 E-N=-3.277490885555D+03  KE= 6.307042779291D+02
 Leave Link  601 at Fri Jan 23 16:34:59 2026, MaxMem=  2147483648 cpu:               0.7 elap:               0.1
 (Enter /data/home/wyx/g16/l9999.exe)
 Electronic transition elements 
                 1             2             3             4             5 
      1  -0.633198D+03 -0.633178D+03 -0.633173D+03 -0.633138D+03 -0.633121D+03
      2  -0.142294D+01 -0.182096D+00 -0.365797D-01  0.282592D+00  0.417733D+00
      3  -0.346528D+00 -0.654923D-01  0.108765D+00 -0.131695D+01 -0.140016D+01
      4  -0.115351D+00  0.257342D-01 -0.435214D-01  0.198654D+00  0.141717D+00
      5   0.177965D+00  0.260259D-01  0.592454D-02 -0.488043D-01 -0.842825D-01
      6   0.472169D-01  0.983142D-02 -0.158932D-01  0.241025D+00  0.285650D+00
      7   0.131330D-01 -0.129750D-02  0.328693D-02 -0.318693D-01 -0.291948D-01
      8   0.516343D-01  0.848691D+00  0.493825D+00  0.726674D-01  0.214734D+00
      9  -0.614525D-01  0.117586D+00 -0.895340D+00 -0.629183D-01 -0.214026D-01
     10  -0.141733D+01 -0.333023D+00 -0.904669D-01  0.444462D-01  0.303883D+00
     11   0.197651D+00  0.467003D-01  0.160616D-01 -0.986929D+00 -0.714867D+00
     12  -0.273878D+00 -0.469493D-01 -0.315221D-01  0.121483D+00  0.295442D+00
     13   0.168810D-01 -0.142697D-02  0.401039D-01 -0.289566D-02  0.550776D-01
     14  -0.481381D+00 -0.668099D-01 -0.303926D-01 -0.390103D+00 -0.167404D+00
     15   0.942016D-01  0.246015D-02  0.555674D-01 -0.102271D-01 -0.233140D-01
     16  -0.175488D-01  0.778368D-01  0.245724D-01 -0.778956D-01  0.341084D-01
                 6 
      1  -0.633105D+03
      2  -0.526632D-01
      3   0.213893D+00
      4   0.747630D-01
      5   0.122650D-01
      6  -0.451368D-01
      7  -0.357609D-01
      8  -0.723997D-01
      9  -0.284406D-01
     10  -0.724348D-02
     11  -0.185685D+00
     12  -0.186483D+00
     13   0.184647D+00
     14   0.125036D-01
     15  -0.167772D-01
     16   0.244724D-01
 1\1\GINC-CN012\SP\RCAM-B3LYP TD-FC\TZVP\C11H15N1O2\WYX\23-Jan-2026\0\\
 #p CAM-B3LYP TZVP em=gd3bj td(nstates=6,root=1) scrf=(Solvent=TetraHyd
 roFuran)\\Title Card Required\\0,1\O,0,2.834186,-1.563035,0.17172\O,0,
 -3.416699,-1.616145,0.114221\N,0,-0.629619,1.508785,-0.397542\H,0,-0.9
 37968,2.465585,-0.452661\C,0,-1.235438,-0.756829,-0.22748\C,0,0.705234
 ,1.293201,-0.120626\C,0,-1.606629,0.540993,-0.302298\C,0,-2.225859,-1.
 825376,-0.08503\C,0,0.22442,-1.117347,-0.384186\H,0,0.478874,-1.968317
 ,0.243302\H,0,0.431192,-1.450627,-1.409812\C,0,1.152149,0.021771,-0.02
 374\C,0,2.511446,-0.392312,0.335612\C,0,-2.999209,1.08482,-0.288085\H,
 0,-3.001636,2.130796,-0.595318\H,0,-3.651328,0.514082,-0.942405\H,0,-3
 .42642,1.014968,0.712035\C,0,-1.732591,-3.247712,-0.191248\H,0,-2.5879
 14,-3.91708,-0.229149\H,0,-1.108105,-3.392168,-1.073454\H,0,-1.122147,
 -3.500918,0.678086\C,0,3.525521,0.546356,0.944339\H,0,4.041963,1.10486
 5,0.161825\H,0,3.085731,1.258676,1.637572\H,0,4.264812,-0.058829,1.463
 584\C,0,1.468584,2.573653,0.035965\H,0,1.484843,2.891396,1.079762\H,0,
 2.489817,2.495514,-0.315468\H,0,0.982789,3.361234,-0.539521\\Version=E
 S64L-G16RevA.03\State=1-A\HF=-633.3289528\RMSD=6.550e-09\PG=C01 [X(C11
 H15N1O2)]\\@


 HEAVEN'S NET CASTS WIDE.
 THOUGH ITS MESHES ARE COARSE, NOTHING SLIPS THROUGH.

                                          -- LAO-TSU
 Job cpu time:       0 days  0 hours 49 minutes 22.6 seconds.
 Elapsed time:       0 days  0 hours  3 minutes  6.5 seconds.
 File lengths (MBytes):  RWF=    826 Int=      0 D2E=      0 Chk=     34 Scr=      1
 Normal termination of Gaussian 16 at Fri Jan 23 16:35:01 2026.
