 Entering Gaussian System, Link 0=g16
 Input=DDL-S2-cLR-gs-10.gjf
 Output=DDL-S2-cLR-gs-10.log
 Initial command:
 /data/home/wyx/g16/l1.exe "/scr/tmp/wyx/13106/Gau-1987304.inp" -scrdir="/scr/tmp/wyx/13106/"
 Entering Link 1 = /data/home/wyx/g16/l1.exe PID=   1987305.
  
 Copyright (c) 1988,1990,1992,1993,1995,1998,2003,2009,2016,
            Gaussian, Inc.  All Rights Reserved.
  
 This is part of the Gaussian(R) 16 program.  It is based on
 the Gaussian(R) 09 system (copyright 2009, Gaussian, Inc.),
 the Gaussian(R) 03 system (copyright 2003, Gaussian, Inc.),
 the Gaussian(R) 98 system (copyright 1998, Gaussian, Inc.),
 the Gaussian(R) 94 system (copyright 1995, Gaussian, Inc.),
 the Gaussian 92(TM) system (copyright 1992, Gaussian, Inc.),
 the Gaussian 90(TM) system (copyright 1990, Gaussian, Inc.),
 the Gaussian 88(TM) system (copyright 1988, Gaussian, Inc.),
 the Gaussian 86(TM) system (copyright 1986, Carnegie Mellon
 University), and the Gaussian 82(TM) system (copyright 1983,
 Carnegie Mellon University). Gaussian is a federally registered
 trademark of Gaussian, Inc.
  
 This software contains proprietary and confidential information,
 including trade secrets, belonging to Gaussian, Inc.
  
 This software is provided under written license and may be
 used, copied, transmitted, or stored only in accord with that
 written license.
  
 The following legend is applicable only to US Government
 contracts under FAR:
  
                    RESTRICTED RIGHTS LEGEND
  
 Use, reproduction and disclosure by the US Government is
 subject to restrictions as set forth in subparagraphs (a)
 and (c) of the Commercial Computer Software - Restricted
 Rights clause in FAR 52.227-19.
  
 Gaussian, Inc.
 340 Quinnipiac St., Bldg. 40, Wallingford CT 06492
  
  
 ---------------------------------------------------------------
 Warning -- This program may not be used in any manner that
 competes with the business of Gaussian, Inc. or will provide
 assistance to any competitor of Gaussian, Inc.  The licensee
 of this program is prohibited from giving any competitor of
 Gaussian, Inc. access to this program.  By using this program,
 the user acknowledges that Gaussian, Inc. is engaged in the
 business of creating and licensing software in the field of
 computational chemistry and represents and warrants to the
 licensee that it is not a competitor of Gaussian, Inc. and that
 it will not use this program in any manner prohibited above.
 ---------------------------------------------------------------
  

 Cite this work as:
 Gaussian 16, Revision A.03,
 M. J. Frisch, G. W. Trucks, H. B. Schlegel, G. E. Scuseria, 
 M. A. Robb, J. R. Cheeseman, G. Scalmani, V. Barone, 
 G. A. Petersson, H. Nakatsuji, X. Li, M. Caricato, A. V. Marenich, 
 J. Bloino, B. G. Janesko, R. Gomperts, B. Mennucci, H. P. Hratchian, 
 J. V. Ortiz, A. F. Izmaylov, J. L. Sonnenberg, D. Williams-Young, 
 F. Ding, F. Lipparini, F. Egidi, J. Goings, B. Peng, A. Petrone, 
 T. Henderson, D. Ranasinghe, V. G. Zakrzewski, J. Gao, N. Rega, 
 G. Zheng, W. Liang, M. Hada, M. Ehara, K. Toyota, R. Fukuda, 
 J. Hasegawa, M. Ishida, T. Nakajima, Y. Honda, O. Kitao, H. Nakai, 
 T. Vreven, K. Throssell, J. A. Montgomery, Jr., J. E. Peralta, 
 F. Ogliaro, M. J. Bearpark, J. J. Heyd, E. N. Brothers, K. N. Kudin, 
 V. N. Staroverov, T. A. Keith, R. Kobayashi, J. Normand, 
 K. Raghavachari, A. P. Rendell, J. C. Burant, S. S. Iyengar, 
 J. Tomasi, M. Cossi, J. M. Millam, M. Klene, C. Adamo, R. Cammi, 
 J. W. Ochterski, R. L. Martin, K. Morokuma, O. Farkas, 
 J. B. Foresman, and D. J. Fox, Gaussian, Inc., Wallingford CT, 2016.
 
 ******************************************
 Gaussian 16:  ES64L-G16RevA.03 25-Dec-2016
                23-Jan-2026 
 ******************************************
 %nprocshared=16
 Will use up to   16 processors via shared memory.
 %mem=16GB
 %oldchk=DDL-S2-cLR-10.chk
 %chk=DDL-S2-cLR-gs-10.chk
 Copying data from "DDL-S2-cLR-10.chk" to current chk file "DDL-S2-cLR-gs-10.chk"
 IOpt=  2 FromEx=T IUOpen= 4 IOptOp= 5 NList=   0 IFRang= 0 IUIn= 4 IUOut= 2.
 ----------------------------------------------------------------------
 #p CAM-B3LYP TZVP em=gd3bj scrf=(Solvent=TetraHydroFuran,NonEquilibriu
 m=Read) Geom=Check Guess=Read
 ----------------------------------------------------------------------
 1/29=2,38=1,172=1/1;
 2/12=2,40=1/2;
 3/5=19,7=101,11=2,14=-4,25=1,30=1,70=6002201,72=20,74=-40,116=-2,124=41/1,2,3;
 4/5=1/1;
 5/5=2,38=6,53=20/2;
 6/7=2,8=2,9=2,10=2,28=1/1;
 99/5=1,9=1/99;
 Leave Link    1 at Fri Jan 23 22:46:46 2026, MaxMem=  2147483648 cpu:               0.8 elap:               0.1
 (Enter /data/home/wyx/g16/l101.exe)
 -------------------
 Title Card Required
 -------------------
 Structure from the checkpoint file:  "DDL-S2-cLR-gs-10.chk"
 Charge =  0 Multiplicity = 1
 Z-Matrix found in chk file.
 O,0,2.83728,-1.567999,0.10986
 O,0,-3.423925,-1.631119,-0.003771
 N,0,-0.645845,1.513416,-0.299757
 H,0,-0.955941,2.471832,-0.352195
 C,0,-1.241712,-0.759173,-0.215224
 C,0,0.693005,1.312111,-0.075837
 C,0,-1.620925,0.558075,-0.272713
 C,0,-2.219571,-1.834676,-0.130256
 C,0,0.210436,-1.100856,-0.29372
 H,0,0.445614,-1.932095,0.372715
 H,0,0.451476,-1.50274,-1.289925
 C,0,1.149958,0.023988,0.006447
 C,0,2.514862,-0.396705,0.30537
 C,0,-3.009506,1.094465,-0.316623
 H,0,-3.011495,2.161633,-0.530987
 H,0,-3.604571,0.585998,-1.067194
 H,0,-3.517688,0.936001,0.630868
 C,0,-1.723892,-3.253853,-0.188795
 H,0,-2.560126,-3.924674,-0.349755
 H,0,-0.988069,-3.407961,-0.972958
 H,0,-1.246045,-3.529866,0.749934
 C,0,3.544574,0.537713,0.89243
 H,0,4.056132,1.087352,0.100054
 H,0,3.121944,1.258039,1.587977
 H,0,4.285845,-0.070162,1.406075
 C,0,1.467762,2.58493,0.030338
 H,0,1.591885,2.894403,1.067865
 H,0,2.451681,2.502089,-0.414331
 H,0,0.946855,3.389833,-0.485892
 Recover connectivity data from disk.
 ITRead=  0  0  0  0  0  0  0  0  0  0  0  0  0  0  0  0  0  0  0  0
 ITRead=  0  0  0  0  0  0  0  0  0
 MicOpt= -1 -1 -1 -1 -1 -1 -1 -1 -1 -1 -1 -1 -1 -1 -1 -1 -1 -1 -1 -1
 MicOpt= -1 -1 -1 -1 -1 -1 -1 -1 -1
 NAtoms=     29 NQM=       29 NQMF=       0 NMMI=      0 NMMIF=      0
                NMic=       0 NMicF=      0.
                    Isotopes and Nuclear Properties:
 (Nuclear quadrupole moments (NQMom) in fm**2, nuclear magnetic moments (NMagM)
  in nuclear magnetons)

  Atom         1           2           3           4           5           6           7           8           9          10
 IAtWgt=          16          16          14           1          12          12          12          12          12           1
 AtmWgt=  15.9949146  15.9949146  14.0030740   1.0078250  12.0000000  12.0000000  12.0000000  12.0000000  12.0000000   1.0078250
 NucSpn=           0           0           2           1           0           0           0           0           0           1
 AtZEff=   5.6000000   5.6000000   4.5500000   1.0000000   3.6000000   3.6000000   3.6000000   3.6000000   3.6000000   1.0000000
 NQMom=    0.0000000   0.0000000   2.0440000   0.0000000   0.0000000   0.0000000   0.0000000   0.0000000   0.0000000   0.0000000
 NMagM=    0.0000000   0.0000000   0.4037610   2.7928460   0.0000000   0.0000000   0.0000000   0.0000000   0.0000000   2.7928460
 AtZNuc=   8.0000000   8.0000000   7.0000000   1.0000000   6.0000000   6.0000000   6.0000000   6.0000000   6.0000000   1.0000000

  Atom        11          12          13          14          15          16          17          18          19          20
 IAtWgt=           1          12          12          12           1           1           1          12           1           1
 AtmWgt=   1.0078250  12.0000000  12.0000000  12.0000000   1.0078250   1.0078250   1.0078250  12.0000000   1.0078250   1.0078250
 NucSpn=           1           0           0           0           1           1           1           0           1           1
 AtZEff=   1.0000000   3.6000000   3.6000000   3.6000000   1.0000000   1.0000000   1.0000000   3.6000000   1.0000000   1.0000000
 NQMom=    0.0000000   0.0000000   0.0000000   0.0000000   0.0000000   0.0000000   0.0000000   0.0000000   0.0000000   0.0000000
 NMagM=    2.7928460   0.0000000   0.0000000   0.0000000   2.7928460   2.7928460   2.7928460   0.0000000   2.7928460   2.7928460
 AtZNuc=   1.0000000   6.0000000   6.0000000   6.0000000   1.0000000   1.0000000   1.0000000   6.0000000   1.0000000   1.0000000

  Atom        21          22          23          24          25          26          27          28          29
 IAtWgt=           1          12           1           1           1          12           1           1           1
 AtmWgt=   1.0078250  12.0000000   1.0078250   1.0078250   1.0078250  12.0000000   1.0078250   1.0078250   1.0078250
 NucSpn=           1           0           1           1           1           0           1           1           1
 AtZEff=   1.0000000   3.6000000   1.0000000   1.0000000   1.0000000   3.6000000   1.0000000   1.0000000   1.0000000
 NQMom=    0.0000000   0.0000000   0.0000000   0.0000000   0.0000000   0.0000000   0.0000000   0.0000000   0.0000000
 NMagM=    2.7928460   0.0000000   2.7928460   2.7928460   2.7928460   0.0000000   2.7928460   2.7928460   2.7928460
 AtZNuc=   1.0000000   6.0000000   1.0000000   1.0000000   1.0000000   6.0000000   1.0000000   1.0000000   1.0000000
 Leave Link  101 at Fri Jan 23 22:46:51 2026, MaxMem=  2147483648 cpu:               0.9 elap:               0.1
 (Enter /data/home/wyx/g16/l202.exe)
                          Input orientation:                          
 ---------------------------------------------------------------------
 Center     Atomic      Atomic             Coordinates (Angstroms)
 Number     Number       Type             X           Y           Z
 ---------------------------------------------------------------------
      1          8           0        2.837280   -1.567999    0.109860
      2          8           0       -3.423925   -1.631119   -0.003771
      3          7           0       -0.645845    1.513416   -0.299757
      4          1           0       -0.955941    2.471832   -0.352195
      5          6           0       -1.241712   -0.759173   -0.215224
      6          6           0        0.693005    1.312111   -0.075837
      7          6           0       -1.620925    0.558075   -0.272713
      8          6           0       -2.219571   -1.834676   -0.130256
      9          6           0        0.210436   -1.100856   -0.293720
     10          1           0        0.445614   -1.932095    0.372715
     11          1           0        0.451476   -1.502740   -1.289925
     12          6           0        1.149958    0.023988    0.006447
     13          6           0        2.514862   -0.396705    0.305370
     14          6           0       -3.009506    1.094465   -0.316623
     15          1           0       -3.011495    2.161633   -0.530987
     16          1           0       -3.604571    0.585998   -1.067194
     17          1           0       -3.517688    0.936001    0.630868
     18          6           0       -1.723892   -3.253853   -0.188795
     19          1           0       -2.560126   -3.924674   -0.349755
     20          1           0       -0.988069   -3.407961   -0.972958
     21          1           0       -1.246045   -3.529866    0.749934
     22          6           0        3.544574    0.537713    0.892430
     23          1           0        4.056132    1.087352    0.100054
     24          1           0        3.121944    1.258039    1.587977
     25          1           0        4.285845   -0.070162    1.406075
     26          6           0        1.467762    2.584930    0.030338
     27          1           0        1.591885    2.894403    1.067865
     28          1           0        2.451681    2.502089   -0.414331
     29          1           0        0.946855    3.389833   -0.485892
 ---------------------------------------------------------------------
                    Distance matrix (angstroms):
                    1          2          3          4          5
     1  O    0.000000
     2  O    6.262554   0.000000
     3  N    4.668518   4.206357   0.000000
     4  H    5.560778   4.800682   1.008697   0.000000
     5  C    4.171098   2.359461   2.350928   3.246509   0.000000
     6  C    3.595474   5.061315   1.372291   2.034785   2.837741
     7  C    4.954003   2.848808   1.365353   2.027557   1.371951
     8  C    5.069567   1.227967   3.703385   4.493554   1.456068
     9  C    2.698409   3.684268   2.750940   3.758717   1.493868
    10  H    2.433459   3.899444   3.676282   4.678079   2.137402
    11  H    2.766897   4.085267   3.358831   4.319419   2.138869
    12  C    2.322105   4.864143   2.353097   3.248904   2.526374
    13  C    1.230491   6.073593   3.742300   4.550535   3.809757
    14  C    6.438595   2.774604   2.400562   2.472961   2.563465
    15  H    6.966277   3.851366   2.463727   2.086502   3.429715
    16  H    6.893664   2.465585   3.194233   3.329089   2.849288
    17  H    6.850335   2.646066   3.073590   3.144477   2.961343
    18  C    4.871918   2.357459   4.888901   5.779266   2.540989
    19  H    5.907381   2.475126   5.765396   6.594597   3.431721
    20  H    4.380782   3.166999   4.978983   5.912558   2.766690
    21  H    4.575168   2.986046   5.186211   6.108947   2.933988
    22  C    2.355144   7.353026   4.464630   5.054161   5.081077
    23  H    2.921744   7.959404   4.738140   5.219405   5.619271
    24  H    3.201930   7.330027   4.221965   4.676185   5.134411
    25  H    2.453982   7.991546   5.453361   6.085192   5.801485
    26  C    4.373640   6.457928   2.392580   2.456310   4.310983
    27  H    4.730942   6.840110   2.963942   2.947296   4.798355
    28  H    4.121781   7.195465   3.253501   3.408323   4.931189
    29  H    5.339356   6.674288   2.468255   2.116892   4.698653
                    6          7          8          9         10
     6  C    0.000000
     7  C    2.441639   0.000000
     8  C    4.288161   2.470613   0.000000
     9  C    2.470376   2.471108   2.543648   0.000000
    10  H    3.284399   3.299713   2.713979   1.091056   0.000000
    11  H    3.075017   3.094596   2.930786   1.100925   1.717193
    12  C    1.369247   2.835661   3.850590   1.496020   2.111046
    13  C    2.526764   4.283751   4.967131   2.482965   2.577546
    14  C    3.716710   1.489228   3.039506   3.897177   4.644686
    15  H    3.827815   2.138174   4.093680   4.591402   5.433865
    16  H    4.469809   2.137015   2.942064   4.242407   4.981780
    17  H    4.286120   2.134712   3.152946   4.347707   4.899018
    18  C    5.167415   3.814242   1.504390   2.896210   2.601748
    19  H    6.171046   4.580728   2.128908   3.956400   3.677881
    20  H    5.090178   4.076799   2.168403   2.687101   2.458549
    21  H    5.280772   4.230556   2.143865   3.018384   2.357303
    22  C    3.109450   5.295314   6.316604   3.899787   3.996700
    23  H    3.375215   5.713849   6.926452   4.442149   4.714578
    24  H    2.944647   5.142657   6.406949   4.193095   4.337806
    25  H    4.124953   6.172758   6.913339   4.534379   4.391128
    26  C    1.493851   3.706746   5.758049   3.907800   4.643869
    27  H    2.149346   4.192580   6.190871   4.441217   5.009217
    28  H    2.150248   4.515016   6.380347   4.244872   4.930085
    29  H    2.132959   3.828550   6.119495   4.554726   5.413997
                   11         12         13         14         15
    11  H    0.000000
    12  C    2.121169   0.000000
    13  C    2.832992   1.459212   0.000000
    14  C    4.435221   4.307138   5.755789   0.000000
    15  H    5.098606   4.709146   6.146967   1.088487   0.000000
    16  H    4.567708   4.906537   6.347999   1.084434   1.766885
    17  H    5.038965   4.796727   6.186575   1.086784   1.763041
    18  C    3.001851   4.363642   5.135614   4.536189   5.576962
    19  H    3.977365   5.429874   6.215405   5.039325   6.105711
    20  H    2.408864   4.160369   4.792944   4.978838   5.942219
    21  H    3.339437   4.350113   4.915156   5.062783   6.095140
    22  C    4.300393   2.604432   1.509332   6.687881   6.902556
    23  H    4.651254   3.096022   2.149440   7.077917   7.176604
    24  H    4.799544   2.812978   2.179864   6.422534   6.551760
    25  H    4.901335   3.435347   2.110583   7.585921   7.873010
    26  C    4.414179   2.580696   3.172098   4.731574   4.534094
    27  H    5.118063   3.092117   3.502096   5.131217   4.927919
    28  H    4.561375   2.830640   2.987468   5.640524   5.475017
    29  H    4.982885   3.407721   4.174040   4.577134   4.144761
                   16         17         18         19         20
    16  H    0.000000
    17  H    1.735934   0.000000
    18  C    4.364974   4.630813   0.000000
    19  H    4.685269   5.050219   1.084065   0.000000
    20  H    4.775633   5.276480   1.086322   1.768258   0.000000
    21  H    5.079856   5.011837   1.088914   1.758408   1.746359
    22  C    7.413011   7.078318   6.580407   7.663112   6.292286
    23  H    7.765320   7.593907   7.234513   8.312497   6.841283
    24  H    7.262753   6.715987   6.855379   7.931030   6.724742
    25  H    8.294954   7.906228   6.985445   8.050312   6.679436
    26  C    5.561373   5.285292   6.657782   7.664418   6.553812
    27  H    6.073744   5.489448   7.097508   8.108554   7.109213
    28  H    6.385595   6.259268   7.114573   8.150194   6.860950
    29  H    5.377256   5.215418   7.166570   8.112919   7.084572
                   21         22         23         24         25
    21  H    0.000000
    22  C    6.286138   0.000000
    23  H    7.060745   1.091629   0.000000
    24  H    6.534958   1.086863   1.765150   0.000000
    25  H    6.557582   1.087578   1.760198   1.775351   0.000000
    26  C    6.728543   3.040962   2.991197   2.631197   4.108985
    27  H    7.030374   3.065577   3.205402   2.299844   4.020006
    28  H    7.170298   2.600156   2.200076   2.450745   3.646164
    29  H    7.363308   4.096645   3.913100   3.684629   5.167200
                   26         27         28         29
    26  C    0.000000
    27  H    1.089790   0.000000
    28  H    1.082908   1.757858   0.000000
    29  H    1.088901   1.753760   1.748631   0.000000
 Stoichiometry    C11H15NO2
 Framework group  C1[X(C11H15NO2)]
 Deg. of freedom    81
 Full point group                 C1      NOp   1
 RotChk:  IX=0 Diff= 7.54D-16
 Largest Abelian subgroup         C1      NOp   1
 Largest concise Abelian subgroup C1      NOp   1
                         Standard orientation:                         
 ---------------------------------------------------------------------
 Center     Atomic      Atomic             Coordinates (Angstroms)
 Number     Number       Type             X           Y           Z
 ---------------------------------------------------------------------
      1          8           0        2.287231   -2.280285   -0.223974
      2          8           0       -3.607408   -0.250473    0.369897
      3          7           0        0.022570    1.801944   -0.181721
      4          1           0        0.049680    2.810277   -0.181531
      5          6           0       -1.291996   -0.143967   -0.071216
      6          6           0        1.230766    1.154723   -0.114260
      7          6           0       -1.209284    1.225456   -0.061781
      8          6           0       -2.561092   -0.835835    0.104422
      9          6           0       -0.055373   -0.944437   -0.319516
     10          1           0       -0.048121   -1.841821    0.301011
     11          1           0       -0.065097   -1.348293   -1.343645
     12          6           0        1.233134   -0.214505   -0.107329
     13          6           0        2.399389   -1.081051    0.027753
     14          6           0       -2.333133    2.194803    0.061230
     15          1           0       -1.997212    3.211906   -0.132322
     16          1           0       -3.136859    1.955281   -0.626267
     17          1           0       -2.767081    2.162672    1.057099
     18          6           0       -2.580740   -2.333595   -0.035278
     19          1           0       -3.605690   -2.678096   -0.112691
     20          1           0       -2.022501   -2.680430   -0.900247
     21          1           0       -2.131992   -2.803946    0.838294
     22          6           0        3.737040   -0.576147    0.511327
     23          1           0        4.321442   -0.185386   -0.323798
     24          1           0        3.653769    0.204418    1.263029
     25          1           0        4.277973   -1.423228    0.926863
     26          6           0        2.395349    2.089428   -0.073503
     27          1           0        2.719988    2.282532    0.948731
     28          1           0        3.243966    1.708514   -0.627979
     29          1           0        2.126809    3.048830   -0.512980
 ---------------------------------------------------------------------
 Rotational constants (GHZ):           1.0788077           0.4906132           0.3453601
 Leave Link  202 at Fri Jan 23 22:46:51 2026, MaxMem=  2147483648 cpu:               0.0 elap:               0.0
 (Enter /data/home/wyx/g16/l301.exe)
 Standard basis: TZVP (5D, 7F)
 Ernie: Thresh=  0.10000D-02 Tol=  0.10000D-05 Strict=F.
 There are   370 symmetry adapted cartesian basis functions of A   symmetry.
 There are   356 symmetry adapted basis functions of A   symmetry.
   356 basis functions,   610 primitive gaussians,   370 cartesian basis functions
    52 alpha electrons       52 beta electrons
       nuclear repulsion energy       900.6293921568 Hartrees.
 IExCor=20419 DFT=T Ex+Corr=CAM-B3LYP ExCW=0 ScaHFX=  1.000000
 ScaDFX=  1.000000  1.000000  1.000000  0.810000 ScalE2=  1.000000  1.000000
 IRadAn=      5 IRanWt=     -1 IRanGd=            0 ICorTp=0 IEmpDi=141
 HFx  wShort=  0.000000 wLong=  0.330000 cFull=  0.190000 cShort=  0.000000 cLong=  0.460000
 DFx  wShort=  0.000000 wLong=  0.330000 cFull=  0.190000 cShort=  0.000000 cLong=  0.460000
 NAtoms=   29 NActive=   29 NUniq=   29 SFac= 1.00D+00 NAtFMM=   60 NAOKFM=F Big=F
 Integral buffers will be    131072 words long.
 Raffenetti 2 integral format.
 Two-electron integral symmetry is turned on.
 R6Disp:  Grimme-D3(BJ) Dispersion energy=       -0.0261836516 Hartrees.
 Nuclear repulsion after empirical dispersion term =      900.6032085051 Hartrees.
 ------------------------------------------------------------------------------
 Polarizable Continuum Model (PCM)
 =================================
 Model                : PCM.
 Atomic radii         : UFF (Universal Force Field).
 Polarization charges : Total charges.
 Charge compensation  : None.
 Solution method      : On-the-fly selection.
 Cavity type          : Scaled VdW (van der Waals Surface) (Alpha=1.100).
 Cavity algorithm     : GePol (No added spheres)
                        Default sphere list used, NSphG=   29.
                        Lebedev-Laikov grids with approx.  5.0 points / Ang**2.
                        Smoothing algorithm: York/Karplus (Gamma=1.0000).
                        Polarization charges: spherical gaussians, with
                                              point-specific exponents (IZeta= 3).
                        Self-potential: point-specific (ISelfS= 7).
                        Self-field    : sphere-specific E.n sum rule (ISelfD= 2).
 Solvent              : TetraHydroFuran, Eps=   7.425700 Eps(inf)=   1.974025
 ------------------------------------------------------------------------------
 GePol: Number of generator spheres                  =      29
 GePol: Total number of spheres                      =      29
 GePol: Number of exposed spheres                    =      29 (100.00%)
 GePol: Number of points                             =    2107
 GePol: Average weight of points                     =       0.13
 GePol: Minimum weight of points                     =   0.26D-08
 GePol: Maximum weight of points                     =    0.20577
 GePol: Number of points with low weight             =     138
 GePol: Fraction of low-weight points (<1% of avg)   =       6.55%
 GePol: Cavity surface area                          =    268.446 Ang**2
 GePol: Cavity volume                                =    286.477 Ang**3
 Leave Link  301 at Fri Jan 23 22:46:51 2026, MaxMem=  2147483648 cpu:               0.6 elap:               0.0
 (Enter /data/home/wyx/g16/l302.exe)
 NPDir=0 NMtPBC=     1 NCelOv=     1 NCel=       1 NClECP=     1 NCelD=      1
         NCelK=      1 NCelE2=     1 NClLst=     1 CellRange=     0.0.
 One-electron integrals computed using PRISM.
 One-electron integral symmetry used in STVInt
 NBasis=   356 RedAO= T EigKep=  4.67D-05  NBF=   356
 NBsUse=   356 1.00D-06 EigRej= -1.00D+00 NBFU=   356
 Precomputing XC quadrature grid using
 IXCGrd= 4 IRadAn=           5 IRanWt=          -1 IRanGd=           0 AccXCQ= 0.00D+00.
 Generated NRdTot=       0 NPtTot=           0 NUsed=           0 NTot=          32
 NSgBfM=   366   366   366   366   366 MxSgAt=    29 MxSgA2=    29.
 Leave Link  302 at Fri Jan 23 22:46:52 2026, MaxMem=  2147483648 cpu:               3.1 elap:               0.2
 (Enter /data/home/wyx/g16/l303.exe)
 DipDrv:  MaxL=1.
 Leave Link  303 at Fri Jan 23 22:46:52 2026, MaxMem=  2147483648 cpu:               0.6 elap:               0.0
 (Enter /data/home/wyx/g16/l401.exe)
 Initial guess from the checkpoint file:  "DDL-S2-cLR-gs-10.chk"
 B after Tr=    -0.000000   -0.000000   -0.000000
         Rot=    1.000000    0.000000   -0.000000   -0.000000 Ang=   0.00 deg.
 Guess basis will be translated and rotated to current coordinates.
 JPrj=2 DoOrth=T DoCkMO=T.
 Leave Link  401 at Fri Jan 23 22:46:52 2026, MaxMem=  2147483648 cpu:               2.7 elap:               0.2
 (Enter /data/home/wyx/g16/l502.exe)
 Integral symmetry usage will be decided dynamically.
 Closed shell SCF:
 Using DIIS extrapolation, IDIIS=  1040.
 NGot=  2147483648 LenX=  2147200095 LenY=  2147062754
 Requested convergence on RMS density matrix=1.00D-08 within 128 cycles.
 Requested convergence on MAX density matrix=1.00D-06.
 Requested convergence on             energy=1.00D-06.
 No special actions if energy rises.
 Fock matrices will be formed incrementally for  20 cycles.

 Cycle   1  Pass 1  IDiag  1:
 FoFJK:  IHMeth= 1 ICntrl=       0 DoSepK=T KAlg= 0 I1Cent=           0 FoldK=F
 IRaf=         1 NMat=       1 IRICut=       1 DoRegI=T DoRafI=F ISym2E= 0 IDoP0=0 IntGTp=1.
 FoFCou: FMM=F IPFlag=           0 FMFlag=      100000 FMFlg1=           0
         NFxFlg=           0 DoJE=T BraDBF=F KetDBF=F FulRan=T
         wScrn=  0.000000 ICntrl=       500 IOpCl=  0 I1Cent=           0 NGrid=           0
         NMat0=    1 NMatS0=      1 NMatT0=    0 NMatD0=    1 NMtDS0=    0 NMtDT0=    0
 Symmetry not used in FoFCou.
 Inv3:  Mode=1 IEnd=    13318347.
 Iteration    1 A*A^-1 deviation from unit magnitude is 3.22D-15 for    489.
 Iteration    1 A*A^-1 deviation from orthogonality  is 2.33D-15 for   1402      5.
 Iteration    1 A^-1*A deviation from unit magnitude is 3.22D-15 for    489.
 Iteration    1 A^-1*A deviation from orthogonality  is 3.77D-15 for   1958    364.
 NEqPCM:  Using non-equilibrium solvation (IEInf=1, Eps=   7.4257, EpsInf=   1.9740)
 Inv3:  Mode=1 IEnd=    13318347.
 Iteration    1 A*A^-1 deviation from unit magnitude is 3.44D-15 for   1788.
 Iteration    1 A*A^-1 deviation from orthogonality  is 2.07D-15 for   1348    967.
 Iteration    1 A^-1*A deviation from unit magnitude is 3.66D-15 for   1788.
 Iteration    1 A^-1*A deviation from orthogonality  is 1.69D-15 for   1357     35.
 E= -633.325587101784    
 DIIS: error= 4.68D-04 at cycle   1 NSaved=   1.
 NSaved= 1 IEnMin= 1 EnMin= -633.325587101784     IErMin= 1 ErrMin= 4.68D-04
 ErrMax= 4.68D-04  0.00D+00 EMaxC= 1.00D-01 BMatC= 4.77D-05 BMatP= 4.77D-05
 IDIUse=3 WtCom= 9.95D-01 WtEn= 4.68D-03
 Coeff-Com:  0.100D+01
 Coeff-En:   0.100D+01
 Coeff:      0.100D+01
 Gap=     0.231 Goal=   None    Shift=    0.000
 RMSDP=2.83D-04 MaxDP=1.64D-02              OVMax= 7.86D-03

 Cycle   2  Pass 1  IDiag  1:
 RMSU=  2.80D-04    CP:  1.00D+00
 E= -633.325676056864     Delta-E=       -0.000088955081 Rises=F Damp=F
 DIIS: error= 3.36D-04 at cycle   2 NSaved=   2.
 NSaved= 2 IEnMin= 2 EnMin= -633.325676056864     IErMin= 2 ErrMin= 3.36D-04
 ErrMax= 3.36D-04  0.00D+00 EMaxC= 1.00D-01 BMatC= 4.58D-05 BMatP= 4.77D-05
 IDIUse=3 WtCom= 9.97D-01 WtEn= 3.36D-03
 Coeff-Com:  0.493D+00 0.507D+00
 Coeff-En:   0.000D+00 0.100D+01
 Coeff:      0.491D+00 0.509D+00
 Gap=     0.231 Goal=   None    Shift=    0.000
 RMSDP=7.58D-05 MaxDP=4.03D-03 DE=-8.90D-05 OVMax= 1.74D-03

 Cycle   3  Pass 1  IDiag  1:
 RMSU=  7.04D-05    CP:  1.00D+00  9.76D-01
 E= -633.325711598792     Delta-E=       -0.000035541928 Rises=F Damp=F
 DIIS: error= 1.29D-04 at cycle   3 NSaved=   3.
 NSaved= 3 IEnMin= 3 EnMin= -633.325711598792     IErMin= 3 ErrMin= 1.29D-04
 ErrMax= 1.29D-04  0.00D+00 EMaxC= 1.00D-01 BMatC= 6.00D-06 BMatP= 4.58D-05
 IDIUse=3 WtCom= 9.99D-01 WtEn= 1.29D-03
 Coeff-Com:  0.621D-01 0.243D+00 0.695D+00
 Coeff-En:   0.000D+00 0.000D+00 0.100D+01
 Coeff:      0.621D-01 0.243D+00 0.695D+00
 Gap=     0.231 Goal=   None    Shift=    0.000
 RMSDP=2.08D-05 MaxDP=1.01D-03 DE=-3.55D-05 OVMax= 1.15D-03

 Cycle   4  Pass 1  IDiag  1:
 RMSU=  1.57D-05    CP:  1.00D+00  9.98D-01  1.17D+00
 E= -633.325716827447     Delta-E=       -0.000005228655 Rises=F Damp=F
 DIIS: error= 4.93D-05 at cycle   4 NSaved=   4.
 NSaved= 4 IEnMin= 4 EnMin= -633.325716827447     IErMin= 4 ErrMin= 4.93D-05
 ErrMax= 4.93D-05  0.00D+00 EMaxC= 1.00D-01 BMatC= 4.77D-07 BMatP= 6.00D-06
 IDIUse=1 WtCom= 1.00D+00 WtEn= 0.00D+00
 Coeff-Com: -0.143D-01 0.193D-01 0.211D+00 0.784D+00
 Coeff:     -0.143D-01 0.193D-01 0.211D+00 0.784D+00
 Gap=     0.231 Goal=   None    Shift=    0.000
 RMSDP=1.38D-05 MaxDP=7.13D-04 DE=-5.23D-06 OVMax= 6.97D-04

 Cycle   5  Pass 1  IDiag  1:
 RMSU=  7.14D-06    CP:  1.00D+00  1.01D+00  1.33D+00  1.07D+00
 E= -633.325717521363     Delta-E=       -0.000000693916 Rises=F Damp=F
 DIIS: error= 1.67D-05 at cycle   5 NSaved=   5.
 NSaved= 5 IEnMin= 5 EnMin= -633.325717521363     IErMin= 5 ErrMin= 1.67D-05
 ErrMax= 1.67D-05  0.00D+00 EMaxC= 1.00D-01 BMatC= 1.34D-07 BMatP= 4.77D-07
 IDIUse=1 WtCom= 1.00D+00 WtEn= 0.00D+00
 Coeff-Com: -0.136D-01-0.307D-01-0.417D-02 0.361D+00 0.687D+00
 Coeff:     -0.136D-01-0.307D-01-0.417D-02 0.361D+00 0.687D+00
 Gap=     0.231 Goal=   None    Shift=    0.000
 RMSDP=5.51D-06 MaxDP=2.48D-04 DE=-6.94D-07 OVMax= 2.62D-04

 Cycle   6  Pass 1  IDiag  1:
 RMSU=  2.33D-06    CP:  1.00D+00  1.01D+00  1.39D+00  1.25D+00  1.07D+00
 E= -633.325717729206     Delta-E=       -0.000000207844 Rises=F Damp=F
 DIIS: error= 1.32D-05 at cycle   6 NSaved=   6.
 NSaved= 6 IEnMin= 6 EnMin= -633.325717729206     IErMin= 6 ErrMin= 1.32D-05
 ErrMax= 1.32D-05  0.00D+00 EMaxC= 1.00D-01 BMatC= 1.44D-08 BMatP= 1.34D-07
 IDIUse=1 WtCom= 1.00D+00 WtEn= 0.00D+00
 Coeff-Com: -0.792D-03-0.158D-01-0.254D-01 0.342D-02 0.185D+00 0.854D+00
 Coeff:     -0.792D-03-0.158D-01-0.254D-01 0.342D-02 0.185D+00 0.854D+00
 Gap=     0.231 Goal=   None    Shift=    0.000
 RMSDP=2.47D-06 MaxDP=9.04D-05 DE=-2.08D-07 OVMax= 2.11D-04

 Cycle   7  Pass 1  IDiag  1:
 RMSU=  1.05D-06    CP:  1.00D+00  1.01D+00  1.41D+00  1.32D+00  1.17D+00
                    CP:  1.25D+00
 E= -633.325717771202     Delta-E=       -0.000000041996 Rises=F Damp=F
 DIIS: error= 5.28D-06 at cycle   7 NSaved=   7.
 NSaved= 7 IEnMin= 7 EnMin= -633.325717771202     IErMin= 7 ErrMin= 5.28D-06
 ErrMax= 5.28D-06  0.00D+00 EMaxC= 1.00D-01 BMatC= 7.20D-09 BMatP= 1.44D-08
 IDIUse=1 WtCom= 1.00D+00 WtEn= 0.00D+00
 Coeff-Com:  0.246D-02-0.342D-02-0.822D-02-0.712D-01-0.910D-01 0.442D+00
 Coeff-Com:  0.729D+00
 Coeff:      0.246D-02-0.342D-02-0.822D-02-0.712D-01-0.910D-01 0.442D+00
 Coeff:      0.729D+00
 Gap=     0.231 Goal=   None    Shift=    0.000
 RMSDP=1.15D-06 MaxDP=4.65D-05 DE=-4.20D-08 OVMax= 1.09D-04

 Cycle   8  Pass 1  IDiag  1:
 RMSU=  4.01D-07    CP:  1.00D+00  1.01D+00  1.42D+00  1.35D+00  1.22D+00
                    CP:  1.48D+00  1.12D+00
 E= -633.325717784670     Delta-E=       -0.000000013468 Rises=F Damp=F
 DIIS: error= 1.82D-06 at cycle   8 NSaved=   8.
 NSaved= 8 IEnMin= 8 EnMin= -633.325717784670     IErMin= 8 ErrMin= 1.82D-06
 ErrMax= 1.82D-06  0.00D+00 EMaxC= 1.00D-01 BMatC= 7.01D-10 BMatP= 7.20D-09
 IDIUse=1 WtCom= 1.00D+00 WtEn= 0.00D+00
 Coeff-Com:  0.102D-02 0.532D-03 0.221D-02-0.234D-01-0.774D-01 0.138D-01
 Coeff-Com:  0.242D+00 0.842D+00
 Coeff:      0.102D-02 0.532D-03 0.221D-02-0.234D-01-0.774D-01 0.138D-01
 Coeff:      0.242D+00 0.842D+00
 Gap=     0.231 Goal=   None    Shift=    0.000
 RMSDP=4.77D-07 MaxDP=1.64D-05 DE=-1.35D-08 OVMax= 4.35D-05

 Cycle   9  Pass 1  IDiag  1:
 RMSU=  1.39D-07    CP:  1.00D+00  1.00D+00  1.42D+00  1.36D+00  1.22D+00
                    CP:  1.60D+00  1.31D+00  1.15D+00
 E= -633.325717786332     Delta-E=       -0.000000001662 Rises=F Damp=F
 DIIS: error= 6.21D-07 at cycle   9 NSaved=   9.
 NSaved= 9 IEnMin= 9 EnMin= -633.325717786332     IErMin= 9 ErrMin= 6.21D-07
 ErrMax= 6.21D-07  0.00D+00 EMaxC= 1.00D-01 BMatC= 8.65D-11 BMatP= 7.01D-10
 IDIUse=1 WtCom= 1.00D+00 WtEn= 0.00D+00
 Coeff-Com:  0.318D-04 0.570D-03 0.203D-02 0.339D-02-0.182D-01-0.590D-01
 Coeff-Com: -0.422D-02 0.331D+00 0.745D+00
 Coeff:      0.318D-04 0.570D-03 0.203D-02 0.339D-02-0.182D-01-0.590D-01
 Coeff:     -0.422D-02 0.331D+00 0.745D+00
 Gap=     0.231 Goal=   None    Shift=    0.000
 RMSDP=1.51D-07 MaxDP=7.38D-06 DE=-1.66D-09 OVMax= 1.34D-05

 Cycle  10  Pass 1  IDiag  1:
 RMSU=  6.18D-08    CP:  1.00D+00  1.00D+00  1.42D+00  1.37D+00  1.22D+00
                    CP:  1.63D+00  1.37D+00  1.26D+00  9.69D-01
 E= -633.325717786497     Delta-E=       -0.000000000165 Rises=F Damp=F
 DIIS: error= 1.83D-07 at cycle  10 NSaved=  10.
 NSaved=10 IEnMin=10 EnMin= -633.325717786497     IErMin=10 ErrMin= 1.83D-07
 ErrMax= 1.83D-07  0.00D+00 EMaxC= 1.00D-01 BMatC= 1.72D-11 BMatP= 8.65D-11
 IDIUse=1 WtCom= 1.00D+00 WtEn= 0.00D+00
 Coeff-Com: -0.811D-04 0.291D-03 0.301D-03 0.377D-02 0.927D-03-0.254D-01
 Coeff-Com: -0.255D-01 0.217D-01 0.307D+00 0.717D+00
 Coeff:     -0.811D-04 0.291D-03 0.301D-03 0.377D-02 0.927D-03-0.254D-01
 Coeff:     -0.255D-01 0.217D-01 0.307D+00 0.717D+00
 Gap=     0.231 Goal=   None    Shift=    0.000
 RMSDP=4.92D-08 MaxDP=1.80D-06 DE=-1.65D-10 OVMax= 3.45D-06

 Cycle  11  Pass 1  IDiag  1:
 RMSU=  1.84D-08    CP:  1.00D+00  1.00D+00  1.42D+00  1.37D+00  1.22D+00
                    CP:  1.63D+00  1.39D+00  1.28D+00  1.11D+00  1.08D+00
 E= -633.325717786517     Delta-E=       -0.000000000020 Rises=F Damp=F
 DIIS: error= 1.02D-07 at cycle  11 NSaved=  11.
 NSaved=11 IEnMin=11 EnMin= -633.325717786517     IErMin=11 ErrMin= 1.02D-07
 ErrMax= 1.02D-07  0.00D+00 EMaxC= 1.00D-01 BMatC= 3.37D-12 BMatP= 1.72D-11
 IDIUse=1 WtCom= 1.00D+00 WtEn= 0.00D+00
 Coeff-Com: -0.540D-04 0.923D-04-0.276D-03 0.150D-02 0.397D-02-0.190D-02
 Coeff-Com: -0.106D-01-0.546D-01 0.242D-01 0.338D+00 0.699D+00
 Coeff:     -0.540D-04 0.923D-04-0.276D-03 0.150D-02 0.397D-02-0.190D-02
 Coeff:     -0.106D-01-0.546D-01 0.242D-01 0.338D+00 0.699D+00
 Gap=     0.231 Goal=   None    Shift=    0.000
 RMSDP=2.66D-08 MaxDP=1.66D-06 DE=-1.98D-11 OVMax= 1.20D-06

 Cycle  12  Pass 1  IDiag  1:
 RMSU=  9.77D-09    CP:  1.00D+00  1.00D+00  1.42D+00  1.37D+00  1.22D+00
                    CP:  1.63D+00  1.40D+00  1.30D+00  1.13D+00  1.25D+00
                    CP:  9.55D-01
 E= -633.325717786526     Delta-E=       -0.000000000009 Rises=F Damp=F
 DIIS: error= 3.53D-08 at cycle  12 NSaved=  12.
 NSaved=12 IEnMin=12 EnMin= -633.325717786526     IErMin=12 ErrMin= 3.53D-08
 ErrMax= 3.53D-08  0.00D+00 EMaxC= 1.00D-01 BMatC= 4.59D-13 BMatP= 3.37D-12
 IDIUse=1 WtCom= 1.00D+00 WtEn= 0.00D+00
 Coeff-Com: -0.126D-04 0.217D-04-0.160D-03 0.136D-03 0.150D-02 0.246D-02
 Coeff-Com: -0.114D-03-0.254D-01-0.248D-01 0.380D-01 0.311D+00 0.697D+00
 Coeff:     -0.126D-04 0.217D-04-0.160D-03 0.136D-03 0.150D-02 0.246D-02
 Coeff:     -0.114D-03-0.254D-01-0.248D-01 0.380D-01 0.311D+00 0.697D+00
 Gap=     0.231 Goal=   None    Shift=    0.000
 RMSDP=6.14D-09 MaxDP=3.20D-07 DE=-8.75D-12 OVMax= 4.35D-07

 Error on total polarization charges =  0.00911
 SCF Done:  E(RCAM-B3LYP) =  -633.325717787     A.U. after   12 cycles
            NFock= 12  Conv=0.61D-08     -V/T= 2.0041
 KE= 6.307395927668D+02 PE=-3.277351495336D+03 EE= 1.112682976278D+03
 Leave Link  502 at Fri Jan 23 22:47:40 2026, MaxMem=  2147483648 cpu:             753.6 elap:              47.8
 (Enter /data/home/wyx/g16/l601.exe)
 Copying SCF densities to generalized density rwf, IOpCl= 0 IROHF=0.

 **********************************************************************

            Population analysis using the SCF density.

 **********************************************************************

 Orbital symmetries:
       Occupied  (A) (A) (A) (A) (A) (A) (A) (A) (A) (A) (A) (A)
                 (A) (A) (A) (A) (A) (A) (A) (A) (A) (A) (A) (A)
                 (A) (A) (A) (A) (A) (A) (A) (A) (A) (A) (A) (A)
                 (A) (A) (A) (A) (A) (A) (A) (A) (A) (A) (A) (A)
                 (A) (A) (A) (A)
       Virtual   (A) (A) (A) (A) (A) (A) (A) (A) (A) (A) (A) (A)
                 (A) (A) (A) (A) (A) (A) (A) (A) (A) (A) (A) (A)
                 (A) (A) (A) (A) (A) (A) (A) (A) (A) (A) (A) (A)
                 (A) (A) (A) (A) (A) (A) (A) (A) (A) (A) (A) (A)
                 (A) (A) (A) (A) (A) (A) (A) (A) (A) (A) (A) (A)
                 (A) (A) (A) (A) (A) (A) (A) (A) (A) (A) (A) (A)
                 (A) (A) (A) (A) (A) (A) (A) (A) (A) (A) (A) (A)
                 (A) (A) (A) (A) (A) (A) (A) (A) (A) (A) (A) (A)
                 (A) (A) (A) (A) (A) (A) (A) (A) (A) (A) (A) (A)
                 (A) (A) (A) (A) (A) (A) (A) (A) (A) (A) (A) (A)
                 (A) (A) (A) (A) (A) (A) (A) (A) (A) (A) (A) (A)
                 (A) (A) (A) (A) (A) (A) (A) (A) (A) (A) (A) (A)
                 (A) (A) (A) (A) (A) (A) (A) (A) (A) (A) (A) (A)
                 (A) (A) (A) (A) (A) (A) (A) (A) (A) (A) (A) (A)
                 (A) (A) (A) (A) (A) (A) (A) (A) (A) (A) (A) (A)
                 (A) (A) (A) (A) (A) (A) (A) (A) (A) (A) (A) (A)
                 (A) (A) (A) (A) (A) (A) (A) (A) (A) (A) (A) (A)
                 (A) (A) (A) (A) (A) (A) (A) (A) (A) (A) (A) (A)
                 (A) (A) (A) (A) (A) (A) (A) (A) (A) (A) (A) (A)
                 (A) (A) (A) (A) (A) (A) (A) (A) (A) (A) (A) (A)
                 (A) (A) (A) (A) (A) (A) (A) (A) (A) (A) (A) (A)
                 (A) (A) (A) (A) (A) (A) (A) (A) (A) (A) (A) (A)
                 (A) (A) (A) (A) (A) (A) (A) (A) (A) (A) (A) (A)
                 (A) (A) (A) (A) (A) (A) (A) (A) (A) (A) (A) (A)
                 (A) (A) (A) (A) (A) (A) (A) (A) (A) (A) (A) (A)
                 (A) (A) (A) (A)
 The electronic state is 1-A.
 Alpha  occ. eigenvalues --  -19.18092 -19.16837 -14.44570 -10.33649 -10.32619
 Alpha  occ. eigenvalues --  -10.32615 -10.31750 -10.26363 -10.25422 -10.24853
 Alpha  occ. eigenvalues --  -10.24767 -10.24607 -10.24541 -10.23250  -1.12042
 Alpha  occ. eigenvalues --   -1.10985  -1.08150  -0.91568  -0.90511  -0.84005
 Alpha  occ. eigenvalues --   -0.82712  -0.81810  -0.78575  -0.74147  -0.71752
 Alpha  occ. eigenvalues --   -0.68744  -0.61698  -0.58405  -0.57042  -0.55367
 Alpha  occ. eigenvalues --   -0.54794  -0.54010  -0.52647  -0.51967  -0.51015
 Alpha  occ. eigenvalues --   -0.50021  -0.49500  -0.49231  -0.48785  -0.48210
 Alpha  occ. eigenvalues --   -0.47097  -0.45364  -0.44953  -0.43856  -0.43331
 Alpha  occ. eigenvalues --   -0.42448  -0.42234  -0.41631  -0.32921  -0.32381
 Alpha  occ. eigenvalues --   -0.30881  -0.25855
 Alpha virt. eigenvalues --   -0.02783   0.02500   0.06018   0.07941   0.08300
 Alpha virt. eigenvalues --    0.09732   0.10786   0.11774   0.12469   0.13353
 Alpha virt. eigenvalues --    0.13922   0.14669   0.15516   0.16210   0.16932
 Alpha virt. eigenvalues --    0.17641   0.17661   0.18015   0.18122   0.19260
 Alpha virt. eigenvalues --    0.19815   0.22058   0.22635   0.23251   0.23607
 Alpha virt. eigenvalues --    0.23738   0.24772   0.25459   0.26211   0.26517
 Alpha virt. eigenvalues --    0.26892   0.27612   0.28576   0.28980   0.30114
 Alpha virt. eigenvalues --    0.31535   0.31823   0.32430   0.33400   0.34294
 Alpha virt. eigenvalues --    0.34982   0.35937   0.36694   0.38053   0.38490
 Alpha virt. eigenvalues --    0.39808   0.40831   0.41400   0.41859   0.42432
 Alpha virt. eigenvalues --    0.43904   0.44491   0.45389   0.45967   0.46429
 Alpha virt. eigenvalues --    0.47175   0.47578   0.48073   0.48211   0.48938
 Alpha virt. eigenvalues --    0.49324   0.50487   0.51117   0.51380   0.51670
 Alpha virt. eigenvalues --    0.52806   0.53063   0.53356   0.54016   0.54230
 Alpha virt. eigenvalues --    0.54388   0.55566   0.56091   0.56521   0.58215
 Alpha virt. eigenvalues --    0.58454   0.59142   0.60833   0.61019   0.62711
 Alpha virt. eigenvalues --    0.63437   0.65602   0.66191   0.66649   0.67787
 Alpha virt. eigenvalues --    0.68584   0.70024   0.70979   0.71887   0.72507
 Alpha virt. eigenvalues --    0.73069   0.73945   0.74727   0.75699   0.77679
 Alpha virt. eigenvalues --    0.78476   0.79743   0.82546   0.85137   0.85860
 Alpha virt. eigenvalues --    0.89936   0.94159   1.00529   1.02637   1.23492
 Alpha virt. eigenvalues --    1.25004   1.26850   1.28072   1.29317   1.31114
 Alpha virt. eigenvalues --    1.32619   1.32785   1.33877   1.34855   1.35900
 Alpha virt. eigenvalues --    1.36522   1.37676   1.38143   1.38852   1.39706
 Alpha virt. eigenvalues --    1.39912   1.40391   1.40795   1.41380   1.41659
 Alpha virt. eigenvalues --    1.43304   1.43847   1.44341   1.45074   1.47207
 Alpha virt. eigenvalues --    1.47955   1.49270   1.49525   1.50200   1.50947
 Alpha virt. eigenvalues --    1.51509   1.52325   1.52972   1.54706   1.57901
 Alpha virt. eigenvalues --    1.58492   1.60514   1.60684   1.61298   1.62249
 Alpha virt. eigenvalues --    1.62569   1.63366   1.64094   1.64729   1.65898
 Alpha virt. eigenvalues --    1.66676   1.67085   1.67418   1.68274   1.68308
 Alpha virt. eigenvalues --    1.68892   1.69711   1.70198   1.71364   1.72129
 Alpha virt. eigenvalues --    1.73646   1.75025   1.76028   1.76708   1.78667
 Alpha virt. eigenvalues --    1.80548   1.82742   1.83948   1.85802   1.86513
 Alpha virt. eigenvalues --    1.86885   1.87905   1.88603   1.88764   1.90510
 Alpha virt. eigenvalues --    1.91061   1.94469   1.94907   1.98624   1.99796
 Alpha virt. eigenvalues --    2.01084   2.03724   2.04870   2.06586   2.09438
 Alpha virt. eigenvalues --    2.10915   2.12491   2.14840   2.17243   2.19479
 Alpha virt. eigenvalues --    2.20174   2.21147   2.21743   2.22827   2.26274
 Alpha virt. eigenvalues --    2.27114   2.27401   2.29163   2.31017   2.31905
 Alpha virt. eigenvalues --    2.33641   2.34286   2.36587   2.37518   2.38400
 Alpha virt. eigenvalues --    2.39361   2.40284   2.41510   2.43178   2.44782
 Alpha virt. eigenvalues --    2.45992   2.47789   2.49977   2.50748   2.51475
 Alpha virt. eigenvalues --    2.52034   2.53899   2.54993   2.56647   2.58023
 Alpha virt. eigenvalues --    2.58852   2.60703   2.61289   2.62392   2.62957
 Alpha virt. eigenvalues --    2.64521   2.65822   2.66769   2.67230   2.68732
 Alpha virt. eigenvalues --    2.71614   2.71926   2.72959   2.74088   2.75396
 Alpha virt. eigenvalues --    2.75916   2.76593   2.77213   2.77852   2.79423
 Alpha virt. eigenvalues --    2.80849   2.81763   2.83402   2.83793   2.84425
 Alpha virt. eigenvalues --    2.85581   2.86281   2.88186   2.89932   2.91992
 Alpha virt. eigenvalues --    2.97512   3.00005   3.00547   3.05102   3.10554
 Alpha virt. eigenvalues --    3.12154   3.15836   3.16828   3.17870   3.21091
 Alpha virt. eigenvalues --    3.21258   3.23076   3.24400   3.25952   3.27235
 Alpha virt. eigenvalues --    3.27800   3.30020   3.33363   3.34761   3.36430
 Alpha virt. eigenvalues --    3.37386   3.38592   3.40018   3.40292   3.41903
 Alpha virt. eigenvalues --    3.42379   3.44513   3.45338   3.47313   3.48214
 Alpha virt. eigenvalues --    3.49365   3.49509   3.55117   3.58349   3.59866
 Alpha virt. eigenvalues --    3.60747   3.90381   3.99953   4.33799   4.36856
 Alpha virt. eigenvalues --   21.65115  21.80079  22.08323  22.10707  22.11994
 Alpha virt. eigenvalues --   22.14949  22.15284  22.18805  22.20189  22.24590
 Alpha virt. eigenvalues --   22.29302  31.92238  43.63297  43.66324
          Condensed to atoms (all electrons):
               1          2          3          4          5          6
     1  O    7.931758   0.000000  -0.000217   0.000019   0.017496   0.013909
     2  O    0.000000   7.951191   0.000552   0.000032  -0.192201   0.001020
     3  N   -0.000217   0.000552   6.402902   0.373004  -0.121585   0.327237
     4  H    0.000019   0.000032   0.373004   0.412458   0.016328  -0.047862
     5  C    0.017496  -0.192201  -0.121585   0.016328   7.036612  -0.072573
     6  C    0.013909   0.001020   0.327237  -0.047862  -0.072573   5.629181
     7  C   -0.000315  -0.040671   0.379266  -0.038993   0.411344  -0.106248
     8  C   -0.000382   0.704521   0.004865  -0.000689  -0.241638   0.027179
     9  C   -0.017441   0.021618   0.013880  -0.000083  -0.597049  -0.085826
    10  H    0.012783  -0.000036  -0.001302   0.000021  -0.117895   0.027225
    11  H    0.004997   0.000115   0.003809   0.000020  -0.032345  -0.018297
    12  C   -0.224505  -0.002571  -0.092645   0.014749   0.174928  -0.159224
    13  C    0.714841  -0.000019   0.001105   0.000471   0.079335   0.161896
    14  C   -0.000007  -0.000402  -0.034905  -0.009271  -0.082856   0.011696
    15  H   -0.000000   0.004289   0.003554   0.001672   0.020072   0.006647
    16  H   -0.000000   0.001109   0.000878   0.000783  -0.009698  -0.000973
    17  H   -0.000000   0.001482  -0.002569   0.000936  -0.006565  -0.001826
    18  C    0.000061  -0.104285  -0.000518   0.000022  -0.267224   0.000257
    19  H   -0.000002   0.008386   0.000002  -0.000001   0.021179   0.000031
    20  H    0.000100   0.003751   0.000120   0.000001   0.043504  -0.001170
    21  H    0.000008   0.000965   0.000012  -0.000001   0.004418   0.000246
    22  C   -0.106365   0.000000  -0.000122   0.000121   0.004270  -0.013973
    23  H    0.001297   0.000000  -0.000018  -0.000015  -0.000048   0.010499
    24  H    0.004842  -0.000000   0.000027  -0.000054  -0.000634  -0.032067
    25  H    0.007234   0.000000   0.000029  -0.000002  -0.000151  -0.001050
    26  C    0.000896   0.000006  -0.028665  -0.006027   0.000314   0.176987
    27  H   -0.000048  -0.000000  -0.002606   0.000445   0.000422  -0.034618
    28  H   -0.000256  -0.000000   0.002418   0.000837  -0.000024  -0.044832
    29  H    0.000025  -0.000000   0.000870   0.001359  -0.000464  -0.050641
               7          8          9         10         11         12
     1  O   -0.000315  -0.000382  -0.017441   0.012783   0.004997  -0.224505
     2  O   -0.040671   0.704521   0.021618  -0.000036   0.000115  -0.002571
     3  N    0.379266   0.004865   0.013880  -0.001302   0.003809  -0.092645
     4  H   -0.038993  -0.000689  -0.000083   0.000021   0.000020   0.014749
     5  C    0.411344  -0.241638  -0.597049  -0.117895  -0.032345   0.174928
     6  C   -0.106248   0.027179  -0.085826   0.027225  -0.018297  -0.159224
     7  C    5.430638  -0.194122  -0.193365   0.017921  -0.005293   0.012149
     8  C   -0.194122   5.319777   0.134317  -0.008735  -0.004248  -0.039690
     9  C   -0.193365   0.134317   6.376292   0.540893   0.393527  -0.067831
    10  H    0.017921  -0.008735   0.540893   0.511037  -0.039171  -0.108764
    11  H   -0.005293  -0.004248   0.393527  -0.039171   0.566949  -0.017913
    12  C    0.012149  -0.039690  -0.067831  -0.108764  -0.017913   7.353772
    13  C    0.013090  -0.006495  -0.258671  -0.001920  -0.002370  -0.423946
    14  C    0.266471  -0.026412   0.011366   0.000545  -0.001222  -0.004344
    15  H   -0.083945   0.005415   0.000277  -0.000005   0.000059  -0.001363
    16  H   -0.023050  -0.007202  -0.000680  -0.000052   0.000191   0.000042
    17  H   -0.019049  -0.002644   0.000763   0.000054  -0.000066   0.000714
    18  C    0.001938   0.312291   0.003124   0.006546  -0.009828  -0.003462
    19  H    0.000179  -0.048720  -0.000885   0.000556   0.000016  -0.000192
    20  H    0.001995  -0.066890  -0.009289  -0.005644   0.002112   0.007703
    21  H    0.000304  -0.025256  -0.009560  -0.001556   0.000898  -0.003445
    22  C    0.000079  -0.000064   0.005722   0.000397   0.002046  -0.259852
    23  H    0.000012   0.000003  -0.002178  -0.000118   0.000165  -0.011357
    24  H   -0.000007  -0.000004   0.003377  -0.000015  -0.000156   0.067145
    25  H    0.000008   0.000003   0.000187  -0.000107  -0.000055   0.021693
    26  C    0.002252   0.000594   0.021622   0.000050  -0.000706  -0.079263
    27  H   -0.000803  -0.000010  -0.000273   0.000040  -0.000016  -0.019224
    28  H   -0.000727   0.000002  -0.000555   0.000010  -0.000120  -0.008417
    29  H    0.003466  -0.000007  -0.000555  -0.000012   0.000104   0.024039
              13         14         15         16         17         18
     1  O    0.714841  -0.000007  -0.000000  -0.000000  -0.000000   0.000061
     2  O   -0.000019  -0.000402   0.004289   0.001109   0.001482  -0.104285
     3  N    0.001105  -0.034905   0.003554   0.000878  -0.002569  -0.000518
     4  H    0.000471  -0.009271   0.001672   0.000783   0.000936   0.000022
     5  C    0.079335  -0.082856   0.020072  -0.009698  -0.006565  -0.267224
     6  C    0.161896   0.011696   0.006647  -0.000973  -0.001826   0.000257
     7  C    0.013090   0.266471  -0.083945  -0.023050  -0.019049   0.001938
     8  C   -0.006495  -0.026412   0.005415  -0.007202  -0.002644   0.312291
     9  C   -0.258671   0.011366   0.000277  -0.000680   0.000763   0.003124
    10  H   -0.001920   0.000545  -0.000005  -0.000052   0.000054   0.006546
    11  H   -0.002370  -0.001222   0.000059   0.000191  -0.000066  -0.009828
    12  C   -0.423946  -0.004344  -0.001363   0.000042   0.000714  -0.003462
    13  C    5.483968  -0.000024  -0.000028  -0.000002  -0.000013   0.000929
    14  C   -0.000024   5.036315   0.390258   0.420809   0.407819   0.002170
    15  H   -0.000028   0.390258   0.587189  -0.029120  -0.027547   0.000282
    16  H   -0.000002   0.420809  -0.029120   0.503247  -0.023910  -0.000276
    17  H   -0.000013   0.407819  -0.027547  -0.023910   0.505015  -0.000076
    18  C    0.000929   0.002170   0.000282  -0.000276  -0.000076   5.344828
    19  H   -0.000015  -0.000001  -0.000005   0.000037  -0.000022   0.395042
    20  H    0.000609   0.000025  -0.000016  -0.000032   0.000006   0.379805
    21  H   -0.000113  -0.000273  -0.000006   0.000022  -0.000006   0.397599
    22  C    0.285361  -0.000019   0.000002  -0.000000   0.000000   0.000035
    23  H   -0.022302  -0.000001   0.000000  -0.000000   0.000000  -0.000002
    24  H   -0.095318   0.000001   0.000000   0.000000   0.000000   0.000002
    25  H   -0.038644   0.000000   0.000000   0.000000  -0.000000  -0.000001
    26  C   -0.053803   0.001200   0.000134   0.000046  -0.000143   0.000020
    27  H    0.006505  -0.000119  -0.000000   0.000004  -0.000009  -0.000001
    28  H   -0.003874   0.000085  -0.000011  -0.000001   0.000001  -0.000000
    29  H   -0.000922  -0.000241   0.000113  -0.000004   0.000002   0.000000
              19         20         21         22         23         24
     1  O   -0.000002   0.000100   0.000008  -0.106365   0.001297   0.004842
     2  O    0.008386   0.003751   0.000965   0.000000   0.000000  -0.000000
     3  N    0.000002   0.000120   0.000012  -0.000122  -0.000018   0.000027
     4  H   -0.000001   0.000001  -0.000001   0.000121  -0.000015  -0.000054
     5  C    0.021179   0.043504   0.004418   0.004270  -0.000048  -0.000634
     6  C    0.000031  -0.001170   0.000246  -0.013973   0.010499  -0.032067
     7  C    0.000179   0.001995   0.000304   0.000079   0.000012  -0.000007
     8  C   -0.048720  -0.066890  -0.025256  -0.000064   0.000003  -0.000004
     9  C   -0.000885  -0.009289  -0.009560   0.005722  -0.002178   0.003377
    10  H    0.000556  -0.005644  -0.001556   0.000397  -0.000118  -0.000015
    11  H    0.000016   0.002112   0.000898   0.002046   0.000165  -0.000156
    12  C   -0.000192   0.007703  -0.003445  -0.259852  -0.011357   0.067145
    13  C   -0.000015   0.000609  -0.000113   0.285361  -0.022302  -0.095318
    14  C   -0.000001   0.000025  -0.000273  -0.000019  -0.000001   0.000001
    15  H   -0.000005  -0.000016  -0.000006   0.000002   0.000000   0.000000
    16  H    0.000037  -0.000032   0.000022  -0.000000  -0.000000   0.000000
    17  H   -0.000022   0.000006  -0.000006   0.000000   0.000000   0.000000
    18  C    0.395042   0.379805   0.397599   0.000035  -0.000002   0.000002
    19  H    0.495083  -0.023385  -0.008625  -0.000000   0.000000   0.000000
    20  H   -0.023385   0.544014  -0.026487   0.000021  -0.000000  -0.000000
    21  H   -0.008625  -0.026487   0.501059  -0.000014   0.000000  -0.000000
    22  C   -0.000000   0.000021  -0.000014   5.425558   0.400649   0.397610
    23  H    0.000000  -0.000000   0.000000   0.400649   0.494829  -0.027675
    24  H    0.000000  -0.000000  -0.000000   0.397610  -0.027675   0.545321
    25  H   -0.000000  -0.000000   0.000000   0.384724  -0.007543  -0.022174
    26  C    0.000000  -0.000017   0.000005  -0.029793  -0.013395   0.016647
    27  H    0.000000  -0.000000  -0.000000  -0.010850   0.001053  -0.001601
    28  H   -0.000000  -0.000000   0.000000   0.006813  -0.000245  -0.009214
    29  H    0.000000   0.000000  -0.000000   0.002018   0.000211   0.000685
              25         26         27         28         29
     1  O    0.007234   0.000896  -0.000048  -0.000256   0.000025
     2  O    0.000000   0.000006  -0.000000  -0.000000  -0.000000
     3  N    0.000029  -0.028665  -0.002606   0.002418   0.000870
     4  H   -0.000002  -0.006027   0.000445   0.000837   0.001359
     5  C   -0.000151   0.000314   0.000422  -0.000024  -0.000464
     6  C   -0.001050   0.176987  -0.034618  -0.044832  -0.050641
     7  C    0.000008   0.002252  -0.000803  -0.000727   0.003466
     8  C    0.000003   0.000594  -0.000010   0.000002  -0.000007
     9  C    0.000187   0.021622  -0.000273  -0.000555  -0.000555
    10  H   -0.000107   0.000050   0.000040   0.000010  -0.000012
    11  H   -0.000055  -0.000706  -0.000016  -0.000120   0.000104
    12  C    0.021693  -0.079263  -0.019224  -0.008417   0.024039
    13  C   -0.038644  -0.053803   0.006505  -0.003874  -0.000922
    14  C    0.000000   0.001200  -0.000119   0.000085  -0.000241
    15  H    0.000000   0.000134  -0.000000  -0.000011   0.000113
    16  H    0.000000   0.000046   0.000004  -0.000001  -0.000004
    17  H   -0.000000  -0.000143  -0.000009   0.000001   0.000002
    18  C   -0.000001   0.000020  -0.000001  -0.000000   0.000000
    19  H   -0.000000   0.000000   0.000000  -0.000000   0.000000
    20  H   -0.000000  -0.000017  -0.000000  -0.000000   0.000000
    21  H    0.000000   0.000005  -0.000000   0.000000  -0.000000
    22  C    0.384724  -0.029793  -0.010850   0.006813   0.002018
    23  H   -0.007543  -0.013395   0.001053  -0.000245   0.000211
    24  H   -0.022174   0.016647  -0.001601  -0.009214   0.000685
    25  H    0.490917   0.001801   0.000108   0.000759  -0.000040
    26  C    0.001801   5.254656   0.429066   0.428447   0.390269
    27  H    0.000108   0.429066   0.480493  -0.025900  -0.018436
    28  H    0.000759   0.428447  -0.025900   0.508787  -0.026468
    29  H   -0.000040   0.390269  -0.018436  -0.026468   0.520747
 Mulliken charges:
               1
     1  O   -0.360729
     2  O   -0.358852
     3  N   -0.229379
     4  H    0.279718
     5  C   -0.087275
     6  C    0.277171
     7  C    0.165476
     8  C    0.164242
     9  C   -0.282725
    10  H    0.167254
    11  H    0.156798
    12  C   -0.148926
    13  C    0.160370
    14  C   -0.388662
    15  H    0.122083
    16  H    0.167834
    17  H    0.167653
    18  C   -0.459277
    19  H    0.161342
    20  H    0.149168
    21  H    0.169807
    22  C   -0.494375
    23  H    0.176177
    24  H    0.153261
    25  H    0.162304
    26  C   -0.513201
    27  H    0.196377
    28  H    0.172486
    29  H    0.153883
 Sum of Mulliken charges =  -0.00000
 Mulliken charges with hydrogens summed into heavy atoms:
               1
     1  O   -0.360729
     2  O   -0.358852
     3  N    0.050340
     5  C   -0.087275
     6  C    0.277171
     7  C    0.165476
     8  C    0.164242
     9  C    0.041327
    12  C   -0.148926
    13  C    0.160370
    14  C    0.068907
    18  C    0.021039
    22  C   -0.002633
    26  C    0.009544
 Electronic spatial extent (au):  <R**2>=           3189.9941
 Charge=              0.0000 electrons
 Dipole moment (field-independent basis, Debye):
    X=              3.5152    Y=              7.0549    Z=             -0.0532  Tot=              7.8823
 Quadrupole moment (field-independent basis, Debye-Ang):
   XX=            -96.2859   YY=            -78.5777   ZZ=            -84.9776
   XY=             12.4581   XZ=              4.7228   YZ=             -1.8205
 Traceless Quadrupole moment (field-independent basis, Debye-Ang):
   XX=             -9.6721   YY=              8.0360   ZZ=              1.6361
   XY=             12.4581   XZ=              4.7228   YZ=             -1.8205
 Octapole moment (field-independent basis, Debye-Ang**2):
  XXX=            100.2369  YYY=             61.1476  ZZZ=              1.8758  XYY=            -34.9659
  XXY=             28.9320  XXZ=             -7.3034  XZZ=              1.1927  YZZ=             -1.5217
  YYZ=              4.0015  XYZ=             -5.1673
 Hexadecapole moment (field-independent basis, Debye-Ang**3):
 XXXX=          -3008.1173 YYYY=          -1283.0916 ZZZZ=           -151.0187 XXXY=             37.5007
 XXXZ=             53.1973 YYYX=             87.9581 YYYZ=            -20.6131 ZZZX=             -3.5194
 ZZZY=              4.3182 XXYY=           -686.1807 XXZZ=           -481.9252 YYZZ=           -243.7789
 XXYZ=             -8.2779 YYXZ=              7.6541 ZZXY=             -0.9796
 N-N= 9.006032085051D+02 E-N=-3.277351497987D+03  KE= 6.307395927668D+02
 No NMR shielding tensors so no spin-rotation constants.
 Leave Link  601 at Fri Jan 23 22:47:40 2026, MaxMem=  2147483648 cpu:               1.8 elap:               0.1
 (Enter /data/home/wyx/g16/l9999.exe)
 1\1\GINC-CN012\SP\RCAM-B3LYP\TZVP\C11H15N1O2\WYX\23-Jan-2026\0\\#p CAM
 -B3LYP TZVP em=gd3bj scrf=(Solvent=TetraHydroFuran,NonEquilibrium=Read
 ) Geom=Check Guess=Read\\Title Card Required\\0,1\O,0,2.83728,-1.56799
 9,0.10986\O,0,-3.423925,-1.631119,-0.003771\N,0,-0.645845,1.513416,-0.
 299757\H,0,-0.955941,2.471832,-0.352195\C,0,-1.241712,-0.759173,-0.215
 224\C,0,0.693005,1.312111,-0.075837\C,0,-1.620925,0.558075,-0.272713\C
 ,0,-2.219571,-1.834676,-0.130256\C,0,0.210436,-1.100856,-0.29372\H,0,0
 .445614,-1.932095,0.372715\H,0,0.451476,-1.50274,-1.289925\C,0,1.14995
 8,0.023988,0.006447\C,0,2.514862,-0.396705,0.30537\C,0,-3.009506,1.094
 465,-0.316623\H,0,-3.011495,2.161633,-0.530987\H,0,-3.604571,0.585998,
 -1.067194\H,0,-3.517688,0.936001,0.630868\C,0,-1.723892,-3.253853,-0.1
 88795\H,0,-2.560126,-3.924674,-0.349755\H,0,-0.988069,-3.407961,-0.972
 958\H,0,-1.246045,-3.529866,0.749934\C,0,3.544574,0.537713,0.89243\H,0
 ,4.056132,1.087352,0.100054\H,0,3.121944,1.258039,1.587977\H,0,4.28584
 5,-0.070162,1.406075\C,0,1.467762,2.58493,0.030338\H,0,1.591885,2.8944
 03,1.067865\H,0,2.451681,2.502089,-0.414331\H,0,0.946855,3.389833,-0.4
 85892\\Version=ES64L-G16RevA.03\State=1-A\HF=-633.3257178\RMSD=6.137e-
 09\Dipole=0.3737789,3.0783353,-0.0342002\Quadrupole=-12.2414291,10.349
 198,1.892231,3.0634029,2.1754078,0.0908133\PG=C01 [X(C11H15N1O2)]\\@


 IT IS NOT EASY TO DESCRIBE
     THE SEA WITH THE MOUTH

                   -- KOKYU
 Job cpu time:       0 days  0 hours 12 minutes 44.5 seconds.
 Elapsed time:       0 days  0 hours  0 minutes 48.7 seconds.
 File lengths (MBytes):  RWF=    341 Int=      0 D2E=      0 Chk=     67 Scr=      1
 Normal termination of Gaussian 16 at Fri Jan 23 22:47:41 2026.
