 Entering Gaussian System, Link 0=g16
 Input=DDL-S1-cLR-gs-1.gjf
 Output=DDL-S1-cLR-gs-1.log
 Initial command:
 /data/home/wyx/g16/l1.exe "/scr/tmp/wyx/13106/Gau-1983873.inp" -scrdir="/scr/tmp/wyx/13106/"
 Entering Link 1 = /data/home/wyx/g16/l1.exe PID=   1983874.
  
 Copyright (c) 1988,1990,1992,1993,1995,1998,2003,2009,2016,
            Gaussian, Inc.  All Rights Reserved.
  
 This is part of the Gaussian(R) 16 program.  It is based on
 the Gaussian(R) 09 system (copyright 2009, Gaussian, Inc.),
 the Gaussian(R) 03 system (copyright 2003, Gaussian, Inc.),
 the Gaussian(R) 98 system (copyright 1998, Gaussian, Inc.),
 the Gaussian(R) 94 system (copyright 1995, Gaussian, Inc.),
 the Gaussian 92(TM) system (copyright 1992, Gaussian, Inc.),
 the Gaussian 90(TM) system (copyright 1990, Gaussian, Inc.),
 the Gaussian 88(TM) system (copyright 1988, Gaussian, Inc.),
 the Gaussian 86(TM) system (copyright 1986, Carnegie Mellon
 University), and the Gaussian 82(TM) system (copyright 1983,
 Carnegie Mellon University). Gaussian is a federally registered
 trademark of Gaussian, Inc.
  
 This software contains proprietary and confidential information,
 including trade secrets, belonging to Gaussian, Inc.
  
 This software is provided under written license and may be
 used, copied, transmitted, or stored only in accord with that
 written license.
  
 The following legend is applicable only to US Government
 contracts under FAR:
  
                    RESTRICTED RIGHTS LEGEND
  
 Use, reproduction and disclosure by the US Government is
 subject to restrictions as set forth in subparagraphs (a)
 and (c) of the Commercial Computer Software - Restricted
 Rights clause in FAR 52.227-19.
  
 Gaussian, Inc.
 340 Quinnipiac St., Bldg. 40, Wallingford CT 06492
  
  
 ---------------------------------------------------------------
 Warning -- This program may not be used in any manner that
 competes with the business of Gaussian, Inc. or will provide
 assistance to any competitor of Gaussian, Inc.  The licensee
 of this program is prohibited from giving any competitor of
 Gaussian, Inc. access to this program.  By using this program,
 the user acknowledges that Gaussian, Inc. is engaged in the
 business of creating and licensing software in the field of
 computational chemistry and represents and warrants to the
 licensee that it is not a competitor of Gaussian, Inc. and that
 it will not use this program in any manner prohibited above.
 ---------------------------------------------------------------
  

 Cite this work as:
 Gaussian 16, Revision A.03,
 M. J. Frisch, G. W. Trucks, H. B. Schlegel, G. E. Scuseria, 
 M. A. Robb, J. R. Cheeseman, G. Scalmani, V. Barone, 
 G. A. Petersson, H. Nakatsuji, X. Li, M. Caricato, A. V. Marenich, 
 J. Bloino, B. G. Janesko, R. Gomperts, B. Mennucci, H. P. Hratchian, 
 J. V. Ortiz, A. F. Izmaylov, J. L. Sonnenberg, D. Williams-Young, 
 F. Ding, F. Lipparini, F. Egidi, J. Goings, B. Peng, A. Petrone, 
 T. Henderson, D. Ranasinghe, V. G. Zakrzewski, J. Gao, N. Rega, 
 G. Zheng, W. Liang, M. Hada, M. Ehara, K. Toyota, R. Fukuda, 
 J. Hasegawa, M. Ishida, T. Nakajima, Y. Honda, O. Kitao, H. Nakai, 
 T. Vreven, K. Throssell, J. A. Montgomery, Jr., J. E. Peralta, 
 F. Ogliaro, M. J. Bearpark, J. J. Heyd, E. N. Brothers, K. N. Kudin, 
 V. N. Staroverov, T. A. Keith, R. Kobayashi, J. Normand, 
 K. Raghavachari, A. P. Rendell, J. C. Burant, S. S. Iyengar, 
 J. Tomasi, M. Cossi, J. M. Millam, M. Klene, C. Adamo, R. Cammi, 
 J. W. Ochterski, R. L. Martin, K. Morokuma, O. Farkas, 
 J. B. Foresman, and D. J. Fox, Gaussian, Inc., Wallingford CT, 2016.
 
 ******************************************
 Gaussian 16:  ES64L-G16RevA.03 25-Dec-2016
                23-Jan-2026 
 ******************************************
 %nprocshared=16
 Will use up to   16 processors via shared memory.
 %mem=16GB
 %oldchk=DDL-S1-cLR-1.chk
 %chk=DDL-S1-cLR-gs-1.chk
 Copying data from "DDL-S1-cLR-1.chk" to current chk file "DDL-S1-cLR-gs-1.chk"
 IOpt=  2 FromEx=T IUOpen= 4 IOptOp= 5 NList=   0 IFRang= 0 IUIn= 4 IUOut= 2.
 ----------------------------------------------------------------------
 #p CAM-B3LYP TZVP em=gd3bj scrf=(Solvent=TetraHydroFuran,NonEquilibriu
 m=Read) Geom=Check Guess=Read
 ----------------------------------------------------------------------
 1/29=2,38=1,172=1/1;
 2/12=2,40=1/2;
 3/5=19,7=101,11=2,14=-4,25=1,30=1,70=6002201,72=20,74=-40,116=-2,124=41/1,2,3;
 4/5=1/1;
 5/5=2,38=6,53=20/2;
 6/7=2,8=2,9=2,10=2,28=1/1;
 99/5=1,9=1/99;
 Leave Link    1 at Fri Jan 23 22:30:13 2026, MaxMem=  2147483648 cpu:               0.8 elap:               0.1
 (Enter /data/home/wyx/g16/l101.exe)
 -------------------
 Title Card Required
 -------------------
 Structure from the checkpoint file:  "DDL-S1-cLR-gs-1.chk"
 Charge =  0 Multiplicity = 1
 Z-Matrix found in chk file.
 O,0,2.840157,-1.574847,0.017213
 O,0,-3.430102,-1.653909,-0.180776
 N,0,-0.670481,1.518778,-0.152961
 H,0,-0.982798,2.480069,-0.201647
 C,0,-1.250212,-0.763812,-0.197036
 C,0,0.675016,1.341581,-0.008681
 C,0,-1.643876,0.584691,-0.228405
 C,0,-2.209603,-1.850015,-0.197822
 C,0,0.189724,-1.077691,-0.160822
 H,0,0.395095,-1.875606,0.563843
 H,0,0.480365,-1.578977,-1.104718
 C,0,1.146704,0.026227,0.05146
 C,0,2.518601,-0.403432,0.259783
 C,0,-3.033737,1.108055,-0.358579
 H,0,-3.028151,2.195914,-0.431924
 H,0,-3.525023,0.702609,-1.240708
 H,0,-3.64683,0.820441,0.492948
 C,0,-1.703276,-3.273564,-0.183677
 H,0,-2.501282,-3.92619,-0.527291
 H,0,-0.823489,-3.429265,-0.803787
 H,0,-1.442388,-3.568728,0.835027
 C,0,3.572536,0.524789,0.814524
 H,0,4.076737,1.061124,0.007644
 H,0,3.175876,1.256905,1.513154
 H,0,4.316988,-0.087046,1.319777
 C,0,1.470748,2.60481,0.024276
 H,0,1.751247,2.896,1.03832
 H,0,2.384308,2.512972,-0.557335
 H,0,0.897148,3.428116,-0.401805
 Recover connectivity data from disk.
 ITRead=  0  0  0  0  0  0  0  0  0  0  0  0  0  0  0  0  0  0  0  0
 ITRead=  0  0  0  0  0  0  0  0  0
 MicOpt= -1 -1 -1 -1 -1 -1 -1 -1 -1 -1 -1 -1 -1 -1 -1 -1 -1 -1 -1 -1
 MicOpt= -1 -1 -1 -1 -1 -1 -1 -1 -1
 NAtoms=     29 NQM=       29 NQMF=       0 NMMI=      0 NMMIF=      0
                NMic=       0 NMicF=      0.
                    Isotopes and Nuclear Properties:
 (Nuclear quadrupole moments (NQMom) in fm**2, nuclear magnetic moments (NMagM)
  in nuclear magnetons)

  Atom         1           2           3           4           5           6           7           8           9          10
 IAtWgt=          16          16          14           1          12          12          12          12          12           1
 AtmWgt=  15.9949146  15.9949146  14.0030740   1.0078250  12.0000000  12.0000000  12.0000000  12.0000000  12.0000000   1.0078250
 NucSpn=           0           0           2           1           0           0           0           0           0           1
 AtZEff=   5.6000000   5.6000000   4.5500000   1.0000000   3.6000000   3.6000000   3.6000000   3.6000000   3.6000000   1.0000000
 NQMom=    0.0000000   0.0000000   2.0440000   0.0000000   0.0000000   0.0000000   0.0000000   0.0000000   0.0000000   0.0000000
 NMagM=    0.0000000   0.0000000   0.4037610   2.7928460   0.0000000   0.0000000   0.0000000   0.0000000   0.0000000   2.7928460
 AtZNuc=   8.0000000   8.0000000   7.0000000   1.0000000   6.0000000   6.0000000   6.0000000   6.0000000   6.0000000   1.0000000

  Atom        11          12          13          14          15          16          17          18          19          20
 IAtWgt=           1          12          12          12           1           1           1          12           1           1
 AtmWgt=   1.0078250  12.0000000  12.0000000  12.0000000   1.0078250   1.0078250   1.0078250  12.0000000   1.0078250   1.0078250
 NucSpn=           1           0           0           0           1           1           1           0           1           1
 AtZEff=   1.0000000   3.6000000   3.6000000   3.6000000   1.0000000   1.0000000   1.0000000   3.6000000   1.0000000   1.0000000
 NQMom=    0.0000000   0.0000000   0.0000000   0.0000000   0.0000000   0.0000000   0.0000000   0.0000000   0.0000000   0.0000000
 NMagM=    2.7928460   0.0000000   0.0000000   0.0000000   2.7928460   2.7928460   2.7928460   0.0000000   2.7928460   2.7928460
 AtZNuc=   1.0000000   6.0000000   6.0000000   6.0000000   1.0000000   1.0000000   1.0000000   6.0000000   1.0000000   1.0000000

  Atom        21          22          23          24          25          26          27          28          29
 IAtWgt=           1          12           1           1           1          12           1           1           1
 AtmWgt=   1.0078250  12.0000000   1.0078250   1.0078250   1.0078250  12.0000000   1.0078250   1.0078250   1.0078250
 NucSpn=           1           0           1           1           1           0           1           1           1
 AtZEff=   1.0000000   3.6000000   1.0000000   1.0000000   1.0000000   3.6000000   1.0000000   1.0000000   1.0000000
 NQMom=    0.0000000   0.0000000   0.0000000   0.0000000   0.0000000   0.0000000   0.0000000   0.0000000   0.0000000
 NMagM=    2.7928460   0.0000000   2.7928460   2.7928460   2.7928460   0.0000000   2.7928460   2.7928460   2.7928460
 AtZNuc=   1.0000000   6.0000000   1.0000000   1.0000000   1.0000000   6.0000000   1.0000000   1.0000000   1.0000000
 Leave Link  101 at Fri Jan 23 22:30:15 2026, MaxMem=  2147483648 cpu:               0.9 elap:               0.1
 (Enter /data/home/wyx/g16/l202.exe)
                          Input orientation:                          
 ---------------------------------------------------------------------
 Center     Atomic      Atomic             Coordinates (Angstroms)
 Number     Number       Type             X           Y           Z
 ---------------------------------------------------------------------
      1          8           0        2.840157   -1.574847    0.017213
      2          8           0       -3.430102   -1.653909   -0.180776
      3          7           0       -0.670481    1.518778   -0.152961
      4          1           0       -0.982798    2.480069   -0.201647
      5          6           0       -1.250212   -0.763812   -0.197036
      6          6           0        0.675016    1.341581   -0.008681
      7          6           0       -1.643876    0.584691   -0.228405
      8          6           0       -2.209603   -1.850015   -0.197822
      9          6           0        0.189724   -1.077691   -0.160822
     10          1           0        0.395095   -1.875606    0.563843
     11          1           0        0.480365   -1.578977   -1.104718
     12          6           0        1.146704    0.026227    0.051460
     13          6           0        2.518601   -0.403432    0.259783
     14          6           0       -3.033737    1.108055   -0.358579
     15          1           0       -3.028151    2.195914   -0.431924
     16          1           0       -3.525023    0.702609   -1.240708
     17          1           0       -3.646830    0.820441    0.492948
     18          6           0       -1.703276   -3.273564   -0.183677
     19          1           0       -2.501282   -3.926190   -0.527291
     20          1           0       -0.823489   -3.429265   -0.803787
     21          1           0       -1.442388   -3.568728    0.835027
     22          6           0        3.572536    0.524789    0.814524
     23          1           0        4.076737    1.061124    0.007644
     24          1           0        3.175876    1.256905    1.513154
     25          1           0        4.316988   -0.087046    1.319777
     26          6           0        1.470748    2.604810    0.024276
     27          1           0        1.751247    2.896000    1.038320
     28          1           0        2.384308    2.512972   -0.557335
     29          1           0        0.897148    3.428116   -0.401805
 ---------------------------------------------------------------------
                    Distance matrix (angstroms):
                    1          2          3          4          5
     1  O    0.000000
     2  O    6.273882   0.000000
     3  N    4.682313   4.205024   0.000000
     4  H    5.577206   4.804114   1.011925   0.000000
     5  C    4.175500   2.354667   2.355472   3.254888   0.000000
     6  C    3.632363   5.084739   1.364763   2.020331   2.859136
     7  C    4.983020   2.864298   1.351188   2.007535   1.405139
     8  C    5.061821   1.236271   3.704008   4.500521   1.449230
     9  C    2.702528   3.665456   2.735263   3.746216   1.474194
    10  H    2.523408   3.903298   3.629201   4.632113   2.126513
    11  H    2.612923   4.018835   3.438950   4.408201   2.117375
    12  C    2.330750   4.880978   2.360436   3.258862   2.535965
    13  C    1.238730   6.094658   3.746397   4.559308   3.813464
    14  C    6.468525   2.795919   2.407478   2.472529   2.590549
    15  H    6.989807   3.878889   2.468794   2.077797   3.460667
    16  H    6.876386   2.585661   3.161920   3.271379   2.900760
    17  H    6.931430   2.573574   3.124664   3.214637   2.954609
    18  C    4.854769   2.367534   4.902464   5.798595   2.550353
    19  H    5.861422   2.479121   5.756703   6.591813   3.416852
    20  H    4.187506   3.214726   4.993007   5.942069   2.766745
    21  H    4.794223   2.940985   5.239721   6.154174   2.994936
    22  C    2.362320   7.400965   4.463993   5.060315   5.093392
    23  H    2.911626   7.984957   4.771930   5.258907   5.634596
    24  H    3.220150   7.414930   4.199878   4.661678   5.157354
    25  H    2.468047   8.045130   5.442653   6.082149   5.809686
    26  C    4.398280   6.495927   2.407434   2.467081   4.335922
    27  H    4.713476   7.002446   3.029960   3.030762   4.891736
    28  H    4.153091   7.163244   3.237851   3.386000   4.906818
    29  H    5.383354   6.678392   2.482933   2.114959   4.714376
                    6          7          8          9         10
     6  C    0.000000
     7  C    2.449167   0.000000
     8  C    4.306168   2.499755   0.000000
     9  C    2.472151   2.475918   2.520838   0.000000
    10  H    3.279700   3.292130   2.713898   1.097262   0.000000
    11  H    3.125515   3.156229   2.851640   1.107565   1.696866
    12  C    1.398665   2.859640   3.853209   1.476316   2.108180
    13  C    2.552636   4.305918   4.965674   2.460732   2.601735
    14  C    3.732534   1.490828   3.074934   3.899653   4.637886
    15  H    3.823933   2.133935   4.134533   4.598337   5.411787
    16  H    4.423404   2.139480   3.055132   4.258517   5.027019
    17  H    4.381960   2.141904   3.110325   4.330065   4.859100
    18  C    5.194849   3.858971   1.510979   2.899281   2.629873
    19  H    6.173106   4.601361   2.122293   3.935703   3.712744
    20  H    5.063465   4.137142   2.186901   2.640058   2.401919
    21  H    5.413536   4.292129   2.146944   3.140186   2.513274
    22  C    3.120967   5.319985   6.332272   3.868160   3.990096
    23  H    3.413302   5.745269   6.930730   4.439795   4.742175
    24  H    2.928729   5.168647   6.448548   4.143626   4.294946
    25  H    4.131554   6.195159   6.928749   4.495315   4.376257
    26  C    1.493326   3.720969   5.782714   3.903344   4.639212
    27  H    2.161181   4.298093   6.304049   4.434695   4.983222
    28  H    2.143562   4.478027   6.345780   4.226853   4.947083
    29  H    2.134834   3.817321   6.127983   4.567364   5.414241
                   11         12         13         14         15
    11  H    0.000000
    12  C    2.087447   0.000000
    13  C    2.719959   1.452621   0.000000
    14  C    4.486176   4.337577   5.787523   0.000000
    15  H    5.197320   4.729759   6.164537   1.090343   0.000000
    16  H    4.611644   4.894101   6.324570   1.088072   1.769456
    17  H    5.034231   4.878899   6.290053   1.087981   1.769203
    18  C    2.913457   4.366497   5.124311   4.582500   5.633126
    19  H    3.838365   5.409654   6.182923   5.065135   6.145473
    20  H    2.283454   4.068603   4.632107   5.066624   6.053219
    21  H    3.379157   4.499008   5.102885   5.082262   6.111539
    22  C    4.203670   2.591427   1.510004   6.734925   6.922092
    23  H    4.597975   3.107736   2.153204   7.120054   7.208356
    24  H    4.707575   2.787231   2.181666   6.487283   6.569248
    25  H    4.777417   3.416454   2.111370   7.634023   7.888690
    26  C    4.445173   2.599006   3.194210   4.762062   4.540419
    27  H    5.121833   3.094344   3.475803   5.295672   5.049196
    28  H    4.546281   2.843624   3.031687   5.600760   5.423188
    29  H    5.073340   3.441014   4.212786   4.564691   4.114268
                   16         17         18         19         20
    16  H    0.000000
    17  H    1.741920   0.000000
    18  C    4.499559   4.582150   0.000000
    19  H    4.794037   4.988354   1.086648   0.000000
    20  H    4.955963   5.264293   1.087568   1.771546   0.000000
    21  H    5.185592   4.923554   1.092219   1.762086   1.757327
    22  C    7.391275   7.232570   6.577088   7.648722   6.130131
    23  H    7.711917   7.742541   7.227356   8.272230   6.695837
    24  H    7.265882   6.912354   6.870990   7.953491   6.582046
    25  H    8.287145   8.057889   6.975518   8.039869   6.488795
    26  C    5.493294   5.439966   6.683783   7.663890   6.508400
    27  H    6.151744   5.809011   7.175690   8.190080   7.073302
    28  H    6.218087   6.351565   7.094502   8.082865   6.757284
    29  H    5.261914   5.314912   7.191822   8.102524   7.081374
                   21         22         23         24         25
    21  H    0.000000
    22  C    6.473543   0.000000
    23  H    7.251264   1.092213   0.000000
    24  H    6.713788   1.086930   1.765344   0.000000
    25  H    6.747407   1.088040   1.760031   1.773622   0.000000
    26  C    6.874318   3.060799   3.028931   2.634590   4.126196
    27  H    7.213414   2.998303   3.136394   2.222986   3.944719
    28  H    7.319108   2.691980   2.300300   2.547785   3.744181
    29  H    7.480575   4.131158   3.984983   3.684267   5.197645
                   26         27         28         29
    26  C    0.000000
    27  H    1.091676   0.000000
    28  H    1.086875   1.758861   0.000000
    29  H    1.090135   1.756870   1.753090   0.000000
 Stoichiometry    C11H15NO2
 Framework group  C1[X(C11H15NO2)]
 Deg. of freedom    81
 Full point group                 C1      NOp   1
 RotChk:  IX=0 Diff= 3.21D-16
 Largest Abelian subgroup         C1      NOp   1
 Largest concise Abelian subgroup C1      NOp   1
                         Standard orientation:                         
 ---------------------------------------------------------------------
 Center     Atomic      Atomic             Coordinates (Angstroms)
 Number     Number       Type             X           Y           Z
 ---------------------------------------------------------------------
      1          8           0        2.282469   -2.287186   -0.286808
      2          8           0       -3.634502   -0.262560    0.215123
      3          7           0        0.017773    1.804273   -0.051923
      4          1           0        0.043333    2.815829   -0.061563
      5          6           0       -1.296428   -0.150463   -0.040415
      6          6           0        1.232774    1.182745   -0.059263
      7          6           0       -1.215128    1.252204   -0.022196
      8          6           0       -2.559590   -0.853555    0.061322
      9          6           0       -0.050141   -0.927757   -0.166232
     10          1           0       -0.050870   -1.777677    0.527757
     11          1           0       -0.044305   -1.457854   -1.138684
     12          6           0        1.238636   -0.215906   -0.057452
     13          6           0        2.400164   -1.086664   -0.005122
     14          6           0       -2.353890    2.213983    0.005521
     15          1           0       -1.990756    3.239757   -0.063548
     16          1           0       -3.041452    2.032351   -0.817989
     17          1           0       -2.936221    2.112388    0.918906
     18          6           0       -2.562420   -2.363763    0.013121
     19          1           0       -3.564356   -2.698152   -0.242051
     20          1           0       -1.855389   -2.778193   -0.701833
     21          1           0       -2.311787   -2.770813    0.995178
     22          6           0        3.756164   -0.586762    0.432454
     23          1           0        4.324750   -0.216438   -0.423408
     24          1           0        3.703216    0.206222    1.173932
     25          1           0        4.299876   -1.432129    0.849063
     26          6           0        2.405540    2.105817   -0.110062
     27          1           0        2.871057    2.244682    0.867572
     28          1           0        3.169635    1.738686   -0.790261
     29          1           0        2.101028    3.090119   -0.466177
 ---------------------------------------------------------------------
 Rotational constants (GHZ):           1.0716158           0.4894092           0.3421197
 Leave Link  202 at Fri Jan 23 22:30:15 2026, MaxMem=  2147483648 cpu:               0.0 elap:               0.0
 (Enter /data/home/wyx/g16/l301.exe)
 Standard basis: TZVP (5D, 7F)
 Ernie: Thresh=  0.10000D-02 Tol=  0.10000D-05 Strict=F.
 There are   370 symmetry adapted cartesian basis functions of A   symmetry.
 There are   356 symmetry adapted basis functions of A   symmetry.
   356 basis functions,   610 primitive gaussians,   370 cartesian basis functions
    52 alpha electrons       52 beta electrons
       nuclear repulsion energy       898.4678281238 Hartrees.
 IExCor=20419 DFT=T Ex+Corr=CAM-B3LYP ExCW=0 ScaHFX=  1.000000
 ScaDFX=  1.000000  1.000000  1.000000  0.810000 ScalE2=  1.000000  1.000000
 IRadAn=      5 IRanWt=     -1 IRanGd=            0 ICorTp=0 IEmpDi=141
 HFx  wShort=  0.000000 wLong=  0.330000 cFull=  0.190000 cShort=  0.000000 cLong=  0.460000
 DFx  wShort=  0.000000 wLong=  0.330000 cFull=  0.190000 cShort=  0.000000 cLong=  0.460000
 NAtoms=   29 NActive=   29 NUniq=   29 SFac= 1.00D+00 NAtFMM=   60 NAOKFM=F Big=F
 Integral buffers will be    131072 words long.
 Raffenetti 2 integral format.
 Two-electron integral symmetry is turned on.
 R6Disp:  Grimme-D3(BJ) Dispersion energy=       -0.0261022539 Hartrees.
 Nuclear repulsion after empirical dispersion term =      898.4417258700 Hartrees.
 ------------------------------------------------------------------------------
 Polarizable Continuum Model (PCM)
 =================================
 Model                : PCM.
 Atomic radii         : UFF (Universal Force Field).
 Polarization charges : Total charges.
 Charge compensation  : None.
 Solution method      : On-the-fly selection.
 Cavity type          : Scaled VdW (van der Waals Surface) (Alpha=1.100).
 Cavity algorithm     : GePol (No added spheres)
                        Default sphere list used, NSphG=   29.
                        Lebedev-Laikov grids with approx.  5.0 points / Ang**2.
                        Smoothing algorithm: York/Karplus (Gamma=1.0000).
                        Polarization charges: spherical gaussians, with
                                              point-specific exponents (IZeta= 3).
                        Self-potential: point-specific (ISelfS= 7).
                        Self-field    : sphere-specific E.n sum rule (ISelfD= 2).
 Solvent              : TetraHydroFuran, Eps=   7.425700 Eps(inf)=   1.974025
 ------------------------------------------------------------------------------
 GePol: Number of generator spheres                  =      29
 GePol: Total number of spheres                      =      29
 GePol: Number of exposed spheres                    =      29 (100.00%)
 GePol: Number of points                             =    2096
 GePol: Average weight of points                     =       0.13
 GePol: Minimum weight of points                     =   0.41D-10
 GePol: Maximum weight of points                     =    0.20577
 GePol: Number of points with low weight             =     125
 GePol: Fraction of low-weight points (<1% of avg)   =       5.96%
 GePol: Cavity surface area                          =    269.664 Ang**2
 GePol: Cavity volume                                =    287.654 Ang**3
 Leave Link  301 at Fri Jan 23 22:30:16 2026, MaxMem=  2147483648 cpu:               0.6 elap:               0.0
 (Enter /data/home/wyx/g16/l302.exe)
 NPDir=0 NMtPBC=     1 NCelOv=     1 NCel=       1 NClECP=     1 NCelD=      1
         NCelK=      1 NCelE2=     1 NClLst=     1 CellRange=     0.0.
 One-electron integrals computed using PRISM.
 One-electron integral symmetry used in STVInt
 NBasis=   356 RedAO= T EigKep=  3.89D-05  NBF=   356
 NBsUse=   356 1.00D-06 EigRej= -1.00D+00 NBFU=   356
 Precomputing XC quadrature grid using
 IXCGrd= 4 IRadAn=           5 IRanWt=          -1 IRanGd=           0 AccXCQ= 0.00D+00.
 Generated NRdTot=       0 NPtTot=           0 NUsed=           0 NTot=          32
 NSgBfM=   366   366   366   366   366 MxSgAt=    29 MxSgA2=    29.
 Leave Link  302 at Fri Jan 23 22:30:16 2026, MaxMem=  2147483648 cpu:               3.1 elap:               0.2
 (Enter /data/home/wyx/g16/l303.exe)
 DipDrv:  MaxL=1.
 Leave Link  303 at Fri Jan 23 22:30:16 2026, MaxMem=  2147483648 cpu:               0.6 elap:               0.0
 (Enter /data/home/wyx/g16/l401.exe)
 Initial guess from the checkpoint file:  "DDL-S1-cLR-gs-1.chk"
 B after Tr=    -0.000000   -0.000000   -0.000000
         Rot=    1.000000   -0.000000    0.000000    0.000000 Ang=   0.00 deg.
 Guess basis will be translated and rotated to current coordinates.
 JPrj=2 DoOrth=T DoCkMO=T.
 Leave Link  401 at Fri Jan 23 22:30:16 2026, MaxMem=  2147483648 cpu:               2.2 elap:               0.2
 (Enter /data/home/wyx/g16/l502.exe)
 Integral symmetry usage will be decided dynamically.
 Closed shell SCF:
 Using DIIS extrapolation, IDIIS=  1040.
 NGot=  2147483648 LenX=  2147200095 LenY=  2147062754
 Requested convergence on RMS density matrix=1.00D-08 within 128 cycles.
 Requested convergence on MAX density matrix=1.00D-06.
 Requested convergence on             energy=1.00D-06.
 No special actions if energy rises.
 Fock matrices will be formed incrementally for  20 cycles.

 Cycle   1  Pass 1  IDiag  1:
 FoFJK:  IHMeth= 1 ICntrl=       0 DoSepK=T KAlg= 0 I1Cent=           0 FoldK=F
 IRaf=         1 NMat=       1 IRICut=       1 DoRegI=T DoRafI=F ISym2E= 0 IDoP0=0 IntGTp=1.
 FoFCou: FMM=F IPFlag=           0 FMFlag=      100000 FMFlg1=           0
         NFxFlg=           0 DoJE=T BraDBF=F KetDBF=F FulRan=T
         wScrn=  0.000000 ICntrl=       500 IOpCl=  0 I1Cent=           0 NGrid=           0
         NMat0=    1 NMatS0=      1 NMatT0=    0 NMatD0=    1 NMtDS0=    0 NMtDT0=    0
 Symmetry not used in FoFCou.
 Inv3:  Mode=1 IEnd=    13179648.
 Iteration    1 A*A^-1 deviation from unit magnitude is 2.78D-15 for    247.
 Iteration    1 A*A^-1 deviation from orthogonality  is 1.89D-15 for   1908     94.
 Iteration    1 A^-1*A deviation from unit magnitude is 2.78D-15 for   1132.
 Iteration    1 A^-1*A deviation from orthogonality  is 8.48D-15 for   1370   1339.
 NEqPCM:  Using non-equilibrium solvation (IEInf=1, Eps=   7.4257, EpsInf=   1.9740)
 Inv3:  Mode=1 IEnd=    13179648.
 Iteration    1 A*A^-1 deviation from unit magnitude is 3.77D-15 for    739.
 Iteration    1 A*A^-1 deviation from orthogonality  is 1.83D-15 for   1373     15.
 Iteration    1 A^-1*A deviation from unit magnitude is 3.77D-15 for    739.
 Iteration    1 A^-1*A deviation from orthogonality  is 2.61D-14 for   1369   1339.
 E= -633.318042462916    
 DIIS: error= 1.74D-04 at cycle   1 NSaved=   1.
 NSaved= 1 IEnMin= 1 EnMin= -633.318042462916     IErMin= 1 ErrMin= 1.74D-04
 ErrMax= 1.74D-04  0.00D+00 EMaxC= 1.00D-01 BMatC= 9.31D-06 BMatP= 9.31D-06
 IDIUse=3 WtCom= 9.98D-01 WtEn= 1.74D-03
 Coeff-Com:  0.100D+01
 Coeff-En:   0.100D+01
 Coeff:      0.100D+01
 Gap=     0.215 Goal=   None    Shift=    0.000
 RMSDP=1.43D-04 MaxDP=8.07D-03              OVMax= 2.65D-03

 Cycle   2  Pass 1  IDiag  1:
 RMSU=  1.42D-04    CP:  9.99D-01
 E= -633.318060662701     Delta-E=       -0.000018199785 Rises=F Damp=F
 DIIS: error= 9.79D-05 at cycle   2 NSaved=   2.
 NSaved= 2 IEnMin= 2 EnMin= -633.318060662701     IErMin= 2 ErrMin= 9.79D-05
 ErrMax= 9.79D-05  0.00D+00 EMaxC= 1.00D-01 BMatC= 4.77D-06 BMatP= 9.31D-06
 IDIUse=1 WtCom= 1.00D+00 WtEn= 0.00D+00
 Coeff-Com:  0.386D+00 0.614D+00
 Coeff:      0.386D+00 0.614D+00
 Gap=     0.215 Goal=   None    Shift=    0.000
 RMSDP=2.51D-05 MaxDP=2.14D-03 DE=-1.82D-05 OVMax= 6.97D-04

 Cycle   3  Pass 1  IDiag  1:
 RMSU=  1.89D-05    CP:  1.00D+00  9.02D-01
 E= -633.318064413801     Delta-E=       -0.000003751100 Rises=F Damp=F
 DIIS: error= 6.88D-05 at cycle   3 NSaved=   3.
 NSaved= 3 IEnMin= 3 EnMin= -633.318064413801     IErMin= 3 ErrMin= 6.88D-05
 ErrMax= 6.88D-05  0.00D+00 EMaxC= 1.00D-01 BMatC= 1.41D-06 BMatP= 4.77D-06
 IDIUse=1 WtCom= 1.00D+00 WtEn= 0.00D+00
 Coeff-Com:  0.727D-01 0.337D+00 0.591D+00
 Coeff:      0.727D-01 0.337D+00 0.591D+00
 Gap=     0.215 Goal=   None    Shift=    0.000
 RMSDP=9.64D-06 MaxDP=6.02D-04 DE=-3.75D-06 OVMax= 3.96D-04

 Cycle   4  Pass 1  IDiag  1:
 RMSU=  8.83D-06    CP:  9.99D-01  9.05D-01  8.89D-01
 E= -633.318065495631     Delta-E=       -0.000001081830 Rises=F Damp=F
 DIIS: error= 1.58D-05 at cycle   4 NSaved=   4.
 NSaved= 4 IEnMin= 4 EnMin= -633.318065495631     IErMin= 4 ErrMin= 1.58D-05
 ErrMax= 1.58D-05  0.00D+00 EMaxC= 1.00D-01 BMatC= 1.07D-07 BMatP= 1.41D-06
 IDIUse=1 WtCom= 1.00D+00 WtEn= 0.00D+00
 Coeff-Com: -0.113D-01 0.653D-01 0.236D+00 0.710D+00
 Coeff:     -0.113D-01 0.653D-01 0.236D+00 0.710D+00
 Gap=     0.215 Goal=   None    Shift=    0.000
 RMSDP=4.35D-06 MaxDP=3.17D-04 DE=-1.08D-06 OVMax= 1.84D-04

 Cycle   5  Pass 1  IDiag  1:
 RMSU=  2.64D-06    CP:  9.99D-01  9.07D-01  1.05D+00  1.03D+00
 E= -633.318065593829     Delta-E=       -0.000000098198 Rises=F Damp=F
 DIIS: error= 4.92D-06 at cycle   5 NSaved=   5.
 NSaved= 5 IEnMin= 5 EnMin= -633.318065593829     IErMin= 5 ErrMin= 4.92D-06
 ErrMax= 4.92D-06  0.00D+00 EMaxC= 1.00D-01 BMatC= 1.91D-08 BMatP= 1.07D-07
 IDIUse=1 WtCom= 1.00D+00 WtEn= 0.00D+00
 Coeff-Com: -0.125D-01-0.171D-01 0.223D-01 0.319D+00 0.688D+00
 Coeff:     -0.125D-01-0.171D-01 0.223D-01 0.319D+00 0.688D+00
 Gap=     0.215 Goal=   None    Shift=    0.000
 RMSDP=1.29D-06 MaxDP=9.44D-05 DE=-9.82D-08 OVMax= 7.78D-05

 Cycle   6  Pass 1  IDiag  1:
 RMSU=  9.88D-07    CP:  9.99D-01  9.06D-01  1.07D+00  1.12D+00  1.06D+00
 E= -633.318065617258     Delta-E=       -0.000000023429 Rises=F Damp=F
 DIIS: error= 3.66D-06 at cycle   6 NSaved=   6.
 NSaved= 6 IEnMin= 6 EnMin= -633.318065617258     IErMin= 6 ErrMin= 3.66D-06
 ErrMax= 3.66D-06  0.00D+00 EMaxC= 1.00D-01 BMatC= 1.05D-09 BMatP= 1.91D-08
 IDIUse=1 WtCom= 1.00D+00 WtEn= 0.00D+00
 Coeff-Com: -0.987D-03-0.104D-01-0.157D-01-0.118D-01 0.130D+00 0.908D+00
 Coeff:     -0.987D-03-0.104D-01-0.157D-01-0.118D-01 0.130D+00 0.908D+00
 Gap=     0.215 Goal=   None    Shift=    0.000
 RMSDP=7.95D-07 MaxDP=5.95D-05 DE=-2.34D-08 OVMax= 5.86D-05

 Cycle   7  Pass 1  IDiag  1:
 RMSU=  3.10D-07    CP:  9.99D-01  9.03D-01  1.08D+00  1.15D+00  1.20D+00
                    CP:  1.37D+00
 E= -633.318065620653     Delta-E=       -0.000000003395 Rises=F Damp=F
 DIIS: error= 2.15D-06 at cycle   7 NSaved=   7.
 NSaved= 7 IEnMin= 7 EnMin= -633.318065620653     IErMin= 7 ErrMin= 2.15D-06
 ErrMax= 2.15D-06  0.00D+00 EMaxC= 1.00D-01 BMatC= 4.07D-10 BMatP= 1.05D-09
 IDIUse=1 WtCom= 1.00D+00 WtEn= 0.00D+00
 Coeff-Com:  0.121D-02-0.274D-02-0.753D-02-0.439D-01-0.436D-01 0.401D+00
 Coeff-Com:  0.695D+00
 Coeff:      0.121D-02-0.274D-02-0.753D-02-0.439D-01-0.436D-01 0.401D+00
 Coeff:      0.695D+00
 Gap=     0.215 Goal=   None    Shift=    0.000
 RMSDP=2.32D-07 MaxDP=1.01D-05 DE=-3.39D-09 OVMax= 2.55D-05

 Cycle   8  Pass 1  IDiag  1:
 RMSU=  1.26D-07    CP:  9.99D-01  9.03D-01  1.08D+00  1.15D+00  1.24D+00
                    CP:  1.49D+00  1.13D+00
 E= -633.318065621471     Delta-E=       -0.000000000818 Rises=F Damp=F
 DIIS: error= 8.94D-07 at cycle   8 NSaved=   8.
 NSaved= 8 IEnMin= 8 EnMin= -633.318065621471     IErMin= 8 ErrMin= 8.94D-07
 ErrMax= 8.94D-07  0.00D+00 EMaxC= 1.00D-01 BMatC= 9.06D-11 BMatP= 4.07D-10
 IDIUse=1 WtCom= 1.00D+00 WtEn= 0.00D+00
 Coeff-Com:  0.806D-03 0.726D-03 0.863D-03-0.158D-01-0.600D-01-0.564D-01
 Coeff-Com:  0.313D+00 0.817D+00
 Coeff:      0.806D-03 0.726D-03 0.863D-03-0.158D-01-0.600D-01-0.564D-01
 Coeff:      0.313D+00 0.817D+00
 Gap=     0.215 Goal=   None    Shift=    0.000
 RMSDP=1.97D-07 MaxDP=1.05D-05 DE=-8.18D-10 OVMax= 1.75D-05

 Cycle   9  Pass 1  IDiag  1:
 RMSU=  7.06D-08    CP:  9.99D-01  9.03D-01  1.08D+00  1.16D+00  1.25D+00
                    CP:  1.63D+00  1.44D+00  1.22D+00
 E= -633.318065621717     Delta-E=       -0.000000000247 Rises=F Damp=F
 DIIS: error= 3.98D-07 at cycle   9 NSaved=   9.
 NSaved= 9 IEnMin= 9 EnMin= -633.318065621717     IErMin= 9 ErrMin= 3.98D-07
 ErrMax= 3.98D-07  0.00D+00 EMaxC= 1.00D-01 BMatC= 1.50D-11 BMatP= 9.06D-11
 IDIUse=1 WtCom= 1.00D+00 WtEn= 0.00D+00
 Coeff-Com:  0.143D-03 0.766D-03 0.190D-02 0.246D-02-0.189D-01-0.102D+00
 Coeff-Com:  0.838D-02 0.354D+00 0.753D+00
 Coeff:      0.143D-03 0.766D-03 0.190D-02 0.246D-02-0.189D-01-0.102D+00
 Coeff:      0.838D-02 0.354D+00 0.753D+00
 Gap=     0.215 Goal=   None    Shift=    0.000
 RMSDP=6.33D-08 MaxDP=2.43D-06 DE=-2.47D-10 OVMax= 6.78D-06

 Cycle  10  Pass 1  IDiag  1:
 RMSU=  2.70D-08    CP:  9.99D-01  9.03D-01  1.08D+00  1.16D+00  1.25D+00
                    CP:  1.67D+00  1.53D+00  1.37D+00  1.16D+00
 E= -633.318065621763     Delta-E=       -0.000000000046 Rises=F Damp=F
 DIIS: error= 1.38D-07 at cycle  10 NSaved=  10.
 NSaved=10 IEnMin=10 EnMin= -633.318065621763     IErMin=10 ErrMin= 1.38D-07
 ErrMax= 1.38D-07  0.00D+00 EMaxC= 1.00D-01 BMatC= 2.10D-12 BMatP= 1.50D-11
 IDIUse=1 WtCom= 1.00D+00 WtEn= 0.00D+00
 Coeff-Com: -0.770D-04 0.224D-03 0.424D-03 0.368D-02 0.251D-02-0.298D-01
 Coeff-Com: -0.443D-01-0.774D-02 0.261D+00 0.814D+00
 Coeff:     -0.770D-04 0.224D-03 0.424D-03 0.368D-02 0.251D-02-0.298D-01
 Coeff:     -0.443D-01-0.774D-02 0.261D+00 0.814D+00
 Gap=     0.215 Goal=   None    Shift=    0.000
 RMSDP=3.07D-08 MaxDP=1.67D-06 DE=-4.56D-11 OVMax= 2.65D-06

 Cycle  11  Pass 1  IDiag  1:
 RMSU=  8.70D-09    CP:  9.99D-01  9.03D-01  1.08D+00  1.16D+00  1.25D+00
                    CP:  1.69D+00  1.58D+00  1.42D+00  1.38D+00  1.17D+00
 E= -633.318065621754     Delta-E=        0.000000000009 Rises=F Damp=F
 DIIS: error= 4.24D-08 at cycle  11 NSaved=  11.
 NSaved=11 IEnMin=10 EnMin= -633.318065621763     IErMin=11 ErrMin= 4.24D-08
 ErrMax= 4.24D-08  0.00D+00 EMaxC= 1.00D-01 BMatC= 6.44D-13 BMatP= 2.10D-12
 IDIUse=1 WtCom= 1.00D+00 WtEn= 0.00D+00
 Coeff-Com: -0.577D-04 0.338D-04-0.126D-03 0.150D-02 0.414D-02 0.148D-02
 Coeff-Com: -0.206D-01-0.567D-01 0.943D-02 0.418D+00 0.643D+00
 Coeff:     -0.577D-04 0.338D-04-0.126D-03 0.150D-02 0.414D-02 0.148D-02
 Coeff:     -0.206D-01-0.567D-01 0.943D-02 0.418D+00 0.643D+00
 Gap=     0.215 Goal=   None    Shift=    0.000
 RMSDP=9.54D-09 MaxDP=5.99D-07 DE= 8.75D-12 OVMax= 6.80D-07

 Error on total polarization charges =  0.00946
 SCF Done:  E(RCAM-B3LYP) =  -633.318065622     A.U. after   11 cycles
            NFock= 11  Conv=0.95D-08     -V/T= 2.0043
 KE= 6.305853036311D+02 PE=-3.272728055104D+03 EE= 1.110382959981D+03
 Leave Link  502 at Fri Jan 23 22:31:00 2026, MaxMem=  2147483648 cpu:             688.1 elap:              43.7
 (Enter /data/home/wyx/g16/l601.exe)
 Copying SCF densities to generalized density rwf, IOpCl= 0 IROHF=0.

 **********************************************************************

            Population analysis using the SCF density.

 **********************************************************************

 Orbital symmetries:
       Occupied  (A) (A) (A) (A) (A) (A) (A) (A) (A) (A) (A) (A)
                 (A) (A) (A) (A) (A) (A) (A) (A) (A) (A) (A) (A)
                 (A) (A) (A) (A) (A) (A) (A) (A) (A) (A) (A) (A)
                 (A) (A) (A) (A) (A) (A) (A) (A) (A) (A) (A) (A)
                 (A) (A) (A) (A)
       Virtual   (A) (A) (A) (A) (A) (A) (A) (A) (A) (A) (A) (A)
                 (A) (A) (A) (A) (A) (A) (A) (A) (A) (A) (A) (A)
                 (A) (A) (A) (A) (A) (A) (A) (A) (A) (A) (A) (A)
                 (A) (A) (A) (A) (A) (A) (A) (A) (A) (A) (A) (A)
                 (A) (A) (A) (A) (A) (A) (A) (A) (A) (A) (A) (A)
                 (A) (A) (A) (A) (A) (A) (A) (A) (A) (A) (A) (A)
                 (A) (A) (A) (A) (A) (A) (A) (A) (A) (A) (A) (A)
                 (A) (A) (A) (A) (A) (A) (A) (A) (A) (A) (A) (A)
                 (A) (A) (A) (A) (A) (A) (A) (A) (A) (A) (A) (A)
                 (A) (A) (A) (A) (A) (A) (A) (A) (A) (A) (A) (A)
                 (A) (A) (A) (A) (A) (A) (A) (A) (A) (A) (A) (A)
                 (A) (A) (A) (A) (A) (A) (A) (A) (A) (A) (A) (A)
                 (A) (A) (A) (A) (A) (A) (A) (A) (A) (A) (A) (A)
                 (A) (A) (A) (A) (A) (A) (A) (A) (A) (A) (A) (A)
                 (A) (A) (A) (A) (A) (A) (A) (A) (A) (A) (A) (A)
                 (A) (A) (A) (A) (A) (A) (A) (A) (A) (A) (A) (A)
                 (A) (A) (A) (A) (A) (A) (A) (A) (A) (A) (A) (A)
                 (A) (A) (A) (A) (A) (A) (A) (A) (A) (A) (A) (A)
                 (A) (A) (A) (A) (A) (A) (A) (A) (A) (A) (A) (A)
                 (A) (A) (A) (A) (A) (A) (A) (A) (A) (A) (A) (A)
                 (A) (A) (A) (A) (A) (A) (A) (A) (A) (A) (A) (A)
                 (A) (A) (A) (A) (A) (A) (A) (A) (A) (A) (A) (A)
                 (A) (A) (A) (A) (A) (A) (A) (A) (A) (A) (A) (A)
                 (A) (A) (A) (A) (A) (A) (A) (A) (A) (A) (A) (A)
                 (A) (A) (A) (A) (A) (A) (A) (A) (A) (A) (A) (A)
                 (A) (A) (A) (A)
 The electronic state is 1-A.
 Alpha  occ. eigenvalues --  -19.17787 -19.16770 -14.44804 -10.33354 -10.32939
 Alpha  occ. eigenvalues --  -10.32674 -10.32235 -10.26366 -10.25410 -10.25104
 Alpha  occ. eigenvalues --  -10.24624 -10.24320 -10.24221 -10.23558  -1.11285
 Alpha  occ. eigenvalues --   -1.10577  -1.08485  -0.91380  -0.90399  -0.83913
 Alpha  occ. eigenvalues --   -0.82635  -0.81669  -0.78431  -0.73686  -0.72225
 Alpha  occ. eigenvalues --   -0.68632  -0.61464  -0.58227  -0.57018  -0.55062
 Alpha  occ. eigenvalues --   -0.54538  -0.53948  -0.52417  -0.51724  -0.50834
 Alpha  occ. eigenvalues --   -0.49697  -0.49455  -0.49191  -0.48685  -0.47896
 Alpha  occ. eigenvalues --   -0.47266  -0.45296  -0.44989  -0.43978  -0.43279
 Alpha  occ. eigenvalues --   -0.42052  -0.41959  -0.41378  -0.32500  -0.32118
 Alpha  occ. eigenvalues --   -0.31021  -0.24851
 Alpha virt. eigenvalues --   -0.03366   0.02586   0.06259   0.08165   0.08365
 Alpha virt. eigenvalues --    0.09680   0.10782   0.11506   0.12499   0.13395
 Alpha virt. eigenvalues --    0.13893   0.14794   0.15596   0.16449   0.16948
 Alpha virt. eigenvalues --    0.17505   0.17797   0.17996   0.18577   0.19295
 Alpha virt. eigenvalues --    0.19816   0.22007   0.22743   0.23484   0.23822
 Alpha virt. eigenvalues --    0.23977   0.24734   0.25645   0.26366   0.26758
 Alpha virt. eigenvalues --    0.27473   0.28101   0.28426   0.29653   0.30244
 Alpha virt. eigenvalues --    0.31588   0.31948   0.32318   0.33452   0.34113
 Alpha virt. eigenvalues --    0.34731   0.35758   0.36768   0.37605   0.38626
 Alpha virt. eigenvalues --    0.39690   0.41015   0.41438   0.41881   0.42460
 Alpha virt. eigenvalues --    0.43990   0.44919   0.45542   0.46190   0.46512
 Alpha virt. eigenvalues --    0.47285   0.47743   0.47943   0.48490   0.49111
 Alpha virt. eigenvalues --    0.49663   0.50610   0.51258   0.51358   0.51601
 Alpha virt. eigenvalues --    0.52388   0.52689   0.53266   0.53705   0.54228
 Alpha virt. eigenvalues --    0.54373   0.55205   0.55834   0.56620   0.58193
 Alpha virt. eigenvalues --    0.58413   0.60006   0.61145   0.61917   0.63198
 Alpha virt. eigenvalues --    0.64254   0.65031   0.66369   0.67001   0.67565
 Alpha virt. eigenvalues --    0.68802   0.69263   0.70515   0.70982   0.72100
 Alpha virt. eigenvalues --    0.72969   0.74900   0.75289   0.76140   0.77609
 Alpha virt. eigenvalues --    0.79138   0.80773   0.83573   0.86859   0.87601
 Alpha virt. eigenvalues --    0.91836   0.96075   1.02537   1.04405   1.21883
 Alpha virt. eigenvalues --    1.24179   1.27308   1.28261   1.28932   1.30223
 Alpha virt. eigenvalues --    1.31958   1.33232   1.34610   1.35203   1.36314
 Alpha virt. eigenvalues --    1.36905   1.37889   1.38481   1.38781   1.39459
 Alpha virt. eigenvalues --    1.39945   1.40152   1.40715   1.41352   1.42164
 Alpha virt. eigenvalues --    1.43342   1.43405   1.44282   1.45638   1.47252
 Alpha virt. eigenvalues --    1.48217   1.49501   1.49624   1.50243   1.50826
 Alpha virt. eigenvalues --    1.51400   1.52188   1.53053   1.55728   1.58983
 Alpha virt. eigenvalues --    1.59771   1.59967   1.61025   1.61736   1.62240
 Alpha virt. eigenvalues --    1.62568   1.62968   1.63361   1.64495   1.65731
 Alpha virt. eigenvalues --    1.66274   1.67038   1.67498   1.68027   1.68770
 Alpha virt. eigenvalues --    1.69037   1.69765   1.70319   1.70965   1.72526
 Alpha virt. eigenvalues --    1.74276   1.74704   1.75571   1.76545   1.78600
 Alpha virt. eigenvalues --    1.81638   1.82975   1.83725   1.85519   1.86507
 Alpha virt. eigenvalues --    1.86530   1.88014   1.88663   1.89135   1.90221
 Alpha virt. eigenvalues --    1.91305   1.94377   1.95083   1.99015   1.99746
 Alpha virt. eigenvalues --    2.01640   2.03848   2.05812   2.06879   2.09459
 Alpha virt. eigenvalues --    2.10072   2.11476   2.15834   2.17508   2.19606
 Alpha virt. eigenvalues --    2.20565   2.21150   2.22182   2.22914   2.26440
 Alpha virt. eigenvalues --    2.26918   2.27342   2.29171   2.31031   2.32184
 Alpha virt. eigenvalues --    2.33516   2.34422   2.36895   2.37725   2.39116
 Alpha virt. eigenvalues --    2.39495   2.40273   2.41397   2.42745   2.45116
 Alpha virt. eigenvalues --    2.45614   2.47344   2.48774   2.49489   2.51236
 Alpha virt. eigenvalues --    2.52431   2.53979   2.54509   2.56392   2.57303
 Alpha virt. eigenvalues --    2.58640   2.60934   2.61852   2.62356   2.63405
 Alpha virt. eigenvalues --    2.64758   2.65341   2.66613   2.67331   2.68416
 Alpha virt. eigenvalues --    2.71498   2.71905   2.74008   2.74563   2.75486
 Alpha virt. eigenvalues --    2.76522   2.77286   2.77784   2.78247   2.78849
 Alpha virt. eigenvalues --    2.80750   2.81459   2.83211   2.83730   2.85151
 Alpha virt. eigenvalues --    2.85549   2.86285   2.88771   2.89042   2.92140
 Alpha virt. eigenvalues --    2.97195   2.98597   3.01109   3.07112   3.10702
 Alpha virt. eigenvalues --    3.12104   3.13915   3.18100   3.19365   3.21416
 Alpha virt. eigenvalues --    3.22337   3.23243   3.25051   3.26000   3.26422
 Alpha virt. eigenvalues --    3.29329   3.30376   3.32204   3.34748   3.36467
 Alpha virt. eigenvalues --    3.38259   3.38647   3.39207   3.39464   3.41550
 Alpha virt. eigenvalues --    3.41954   3.43700   3.44747   3.47661   3.48284
 Alpha virt. eigenvalues --    3.49856   3.50212   3.56122   3.58384   3.59891
 Alpha virt. eigenvalues --    3.61471   3.91072   4.00859   4.32932   4.36078
 Alpha virt. eigenvalues --   21.68517  21.80902  22.07819  22.10067  22.11454
 Alpha virt. eigenvalues --   22.14595  22.14942  22.17434  22.18939  22.25103
 Alpha virt. eigenvalues --   22.27144  31.91290  43.64099  43.66971
          Condensed to atoms (all electrons):
               1          2          3          4          5          6
     1  O    7.931820   0.000000  -0.000165   0.000019   0.018784   0.008013
     2  O    0.000000   7.985476   0.000358   0.000010  -0.192365   0.001411
     3  N   -0.000165   0.000358   6.353584   0.367943  -0.119349   0.330436
     4  H    0.000019   0.000010   0.367943   0.412802   0.015935  -0.045483
     5  C    0.018784  -0.192365  -0.119349   0.015935   7.173478  -0.082627
     6  C    0.008013   0.001411   0.330436  -0.045483  -0.082627   5.547427
     7  C   -0.000014  -0.051028   0.394378  -0.035829   0.484118  -0.131945
     8  C   -0.000799   0.697585   0.004140  -0.000935  -0.371169   0.035290
     9  C   -0.001579   0.028374   0.016675   0.000312  -0.734198  -0.038183
    10  H    0.007663   0.000012  -0.001146   0.000024  -0.106466   0.029163
    11  H    0.008818   0.000103   0.003157   0.000039  -0.076577  -0.018404
    12  C   -0.232599  -0.003365  -0.086913   0.014480   0.201895  -0.041955
    13  C    0.716903  -0.000013   0.001618   0.000580   0.083637   0.111192
    14  C   -0.000007  -0.006335  -0.032535  -0.010710  -0.086780   0.010461
    15  H   -0.000000   0.004121   0.004735   0.002339   0.021961   0.006318
    16  H    0.000000   0.002414  -0.000671   0.000807  -0.004934  -0.001394
    17  H   -0.000000   0.003966  -0.001812   0.000909  -0.010046  -0.001175
    18  C    0.000303  -0.098346  -0.000496   0.000021  -0.244775  -0.000095
    19  H    0.000001   0.007030   0.000008  -0.000001   0.023898   0.000012
    20  H    0.000198   0.004339   0.000106   0.000001   0.046003  -0.001249
    21  H   -0.000009   0.000674   0.000011  -0.000001   0.001414   0.000175
    22  C   -0.106067   0.000000  -0.000261   0.000117   0.003437  -0.024527
    23  H    0.001449   0.000000   0.000027  -0.000010  -0.000012   0.007392
    24  H    0.005160  -0.000000   0.000233  -0.000057  -0.000721  -0.023312
    25  H    0.006548   0.000000   0.000020  -0.000003  -0.000121  -0.000883
    26  C    0.000669   0.000011  -0.025190  -0.006953   0.000799   0.197592
    27  H   -0.000054  -0.000000  -0.002312   0.000511   0.000365  -0.032489
    28  H   -0.000210  -0.000000   0.000671   0.000702   0.000116  -0.050197
    29  H    0.000022   0.000000   0.002245   0.002237  -0.000293  -0.047262
               7          8          9         10         11         12
     1  O   -0.000014  -0.000799  -0.001579   0.007663   0.008818  -0.232599
     2  O   -0.051028   0.697585   0.028374   0.000012   0.000103  -0.003365
     3  N    0.394378   0.004140   0.016675  -0.001146   0.003157  -0.086913
     4  H   -0.035829  -0.000935   0.000312   0.000024   0.000039   0.014480
     5  C    0.484118  -0.371169  -0.734198  -0.106466  -0.076577   0.201895
     6  C   -0.131945   0.035290  -0.038183   0.029163  -0.018404  -0.041955
     7  C    5.421084  -0.249769  -0.231256   0.014774  -0.005777   0.028728
     8  C   -0.249769   5.438316   0.234217  -0.009903  -0.000001  -0.056366
     9  C   -0.231256   0.234217   6.419495   0.522022   0.444309  -0.152602
    10  H    0.014774  -0.009903   0.522022   0.542823  -0.051874  -0.105825
    11  H   -0.005777  -0.000001   0.444309  -0.051874   0.574663  -0.015970
    12  C    0.028728  -0.056366  -0.152602  -0.105825  -0.015970   7.384890
    13  C    0.021788  -0.010463  -0.230155  -0.000217  -0.009589  -0.537812
    14  C    0.295255  -0.031489   0.003605   0.000362  -0.000582   0.001332
    15  H   -0.086667   0.005341   0.000971  -0.000003   0.000036  -0.001719
    16  H   -0.023699  -0.006452  -0.000258  -0.000055   0.000168   0.000271
    17  H   -0.019442  -0.001604   0.001008   0.000065  -0.000060   0.000201
    18  C   -0.002502   0.327489   0.000448   0.007329  -0.015007   0.000388
    19  H    0.000156  -0.053548  -0.002404   0.000578   0.000164  -0.000136
    20  H    0.004573  -0.073543  -0.007527  -0.007942   0.003157   0.006802
    21  H   -0.000436  -0.023785  -0.009450  -0.000394   0.000676  -0.002236
    22  C    0.000161  -0.000062   0.010174  -0.001794   0.003893  -0.251008
    23  H   -0.000011   0.000001  -0.001975  -0.000138   0.000178  -0.010499
    24  H   -0.000035   0.000013   0.002299   0.000134  -0.000247   0.065869
    25  H    0.000012   0.000002   0.000359  -0.000003  -0.000121   0.018852
    26  C    0.002667   0.000891   0.021133   0.000184  -0.000726  -0.084731
    27  H   -0.000811  -0.000015  -0.000553   0.000036  -0.000004  -0.016893
    28  H   -0.000766   0.000001   0.000082   0.000013  -0.000092  -0.006879
    29  H    0.002895  -0.000001  -0.000459  -0.000015   0.000076   0.022250
              13         14         15         16         17         18
     1  O    0.716903  -0.000007  -0.000000   0.000000  -0.000000   0.000303
     2  O   -0.000013  -0.006335   0.004121   0.002414   0.003966  -0.098346
     3  N    0.001618  -0.032535   0.004735  -0.000671  -0.001812  -0.000496
     4  H    0.000580  -0.010710   0.002339   0.000807   0.000909   0.000021
     5  C    0.083637  -0.086780   0.021961  -0.004934  -0.010046  -0.244775
     6  C    0.111192   0.010461   0.006318  -0.001394  -0.001175  -0.000095
     7  C    0.021788   0.295255  -0.086667  -0.023699  -0.019442  -0.002502
     8  C   -0.010463  -0.031489   0.005341  -0.006452  -0.001604   0.327489
     9  C   -0.230155   0.003605   0.000971  -0.000258   0.001008   0.000448
    10  H   -0.000217   0.000362  -0.000003  -0.000055   0.000065   0.007329
    11  H   -0.009589  -0.000582   0.000036   0.000168  -0.000060  -0.015007
    12  C   -0.537812   0.001332  -0.001719   0.000271   0.000201   0.000388
    13  C    5.633448   0.000153  -0.000044  -0.000006  -0.000005   0.001559
    14  C    0.000153   5.024671   0.390311   0.413492   0.408317   0.000827
    15  H   -0.000044   0.390311   0.580889  -0.027255  -0.025646   0.000219
    16  H   -0.000006   0.413492  -0.027255   0.509705  -0.025956  -0.000166
    17  H   -0.000005   0.408317  -0.025646  -0.025956   0.505369   0.000146
    18  C    0.001559   0.000827   0.000219  -0.000166   0.000146   5.296963
    19  H   -0.000012   0.000030  -0.000004   0.000040  -0.000039   0.397185
    20  H    0.001021   0.000112  -0.000014  -0.000027  -0.000002   0.380707
    21  H   -0.000156  -0.000177  -0.000005   0.000009  -0.000009   0.400719
    22  C    0.268736  -0.000006   0.000002  -0.000000  -0.000000   0.000027
    23  H   -0.021953  -0.000001   0.000000  -0.000000   0.000000  -0.000001
    24  H   -0.101005   0.000003   0.000000  -0.000000   0.000000   0.000000
    25  H   -0.032772   0.000000   0.000000   0.000000  -0.000000  -0.000000
    26  C   -0.053667   0.000375   0.000328  -0.000001  -0.000053   0.000003
    27  H    0.006700  -0.000086  -0.000007   0.000004  -0.000004  -0.000000
    28  H   -0.001404   0.000040  -0.000007  -0.000002   0.000001   0.000000
    29  H   -0.001486  -0.000095   0.000102  -0.000001  -0.000001  -0.000000
              19         20         21         22         23         24
     1  O    0.000001   0.000198  -0.000009  -0.106067   0.001449   0.005160
     2  O    0.007030   0.004339   0.000674   0.000000   0.000000  -0.000000
     3  N    0.000008   0.000106   0.000011  -0.000261   0.000027   0.000233
     4  H   -0.000001   0.000001  -0.000001   0.000117  -0.000010  -0.000057
     5  C    0.023898   0.046003   0.001414   0.003437  -0.000012  -0.000721
     6  C    0.000012  -0.001249   0.000175  -0.024527   0.007392  -0.023312
     7  C    0.000156   0.004573  -0.000436   0.000161  -0.000011  -0.000035
     8  C   -0.053548  -0.073543  -0.023785  -0.000062   0.000001   0.000013
     9  C   -0.002404  -0.007527  -0.009450   0.010174  -0.001975   0.002299
    10  H    0.000578  -0.007942  -0.000394  -0.001794  -0.000138   0.000134
    11  H    0.000164   0.003157   0.000676   0.003893   0.000178  -0.000247
    12  C   -0.000136   0.006802  -0.002236  -0.251008  -0.010499   0.065869
    13  C   -0.000012   0.001021  -0.000156   0.268736  -0.021953  -0.101005
    14  C    0.000030   0.000112  -0.000177  -0.000006  -0.000001   0.000003
    15  H   -0.000004  -0.000014  -0.000005   0.000002   0.000000   0.000000
    16  H    0.000040  -0.000027   0.000009  -0.000000  -0.000000  -0.000000
    17  H   -0.000039  -0.000002  -0.000009  -0.000000   0.000000   0.000000
    18  C    0.397185   0.380707   0.400719   0.000027  -0.000001   0.000000
    19  H    0.511771  -0.025380  -0.010630  -0.000000   0.000000   0.000000
    20  H   -0.025380   0.537019  -0.022161   0.000040  -0.000000  -0.000001
    21  H   -0.010630  -0.022161   0.491739  -0.000011   0.000000   0.000000
    22  C   -0.000000   0.000040  -0.000011   5.445782   0.399625   0.395153
    23  H    0.000000  -0.000000   0.000000   0.399625   0.497741  -0.028088
    24  H    0.000000  -0.000001   0.000000   0.395153  -0.028088   0.551053
    25  H   -0.000000  -0.000001   0.000000   0.380665  -0.008274  -0.022340
    26  C    0.000000  -0.000017   0.000002  -0.035508  -0.009263   0.016158
    27  H    0.000000   0.000000  -0.000000  -0.010586   0.000809  -0.001975
    28  H   -0.000000  -0.000000   0.000000   0.002920   0.000214  -0.006557
    29  H    0.000000   0.000000  -0.000000   0.002115   0.000155   0.000559
              25         26         27         28         29
     1  O    0.006548   0.000669  -0.000054  -0.000210   0.000022
     2  O    0.000000   0.000011  -0.000000  -0.000000   0.000000
     3  N    0.000020  -0.025190  -0.002312   0.000671   0.002245
     4  H   -0.000003  -0.006953   0.000511   0.000702   0.002237
     5  C   -0.000121   0.000799   0.000365   0.000116  -0.000293
     6  C   -0.000883   0.197592  -0.032489  -0.050197  -0.047262
     7  C    0.000012   0.002667  -0.000811  -0.000766   0.002895
     8  C    0.000002   0.000891  -0.000015   0.000001  -0.000001
     9  C    0.000359   0.021133  -0.000553   0.000082  -0.000459
    10  H   -0.000003   0.000184   0.000036   0.000013  -0.000015
    11  H   -0.000121  -0.000726  -0.000004  -0.000092   0.000076
    12  C    0.018852  -0.084731  -0.016893  -0.006879   0.022250
    13  C   -0.032772  -0.053667   0.006700  -0.001404  -0.001486
    14  C    0.000000   0.000375  -0.000086   0.000040  -0.000095
    15  H    0.000000   0.000328  -0.000007  -0.000007   0.000102
    16  H    0.000000  -0.000001   0.000004  -0.000002  -0.000001
    17  H   -0.000000  -0.000053  -0.000004   0.000001  -0.000001
    18  C   -0.000000   0.000003  -0.000000   0.000000  -0.000000
    19  H   -0.000000   0.000000   0.000000  -0.000000   0.000000
    20  H   -0.000001  -0.000017   0.000000  -0.000000   0.000000
    21  H    0.000000   0.000002  -0.000000   0.000000  -0.000000
    22  C    0.380665  -0.035508  -0.010586   0.002920   0.002115
    23  H   -0.008274  -0.009263   0.000809   0.000214   0.000155
    24  H   -0.022340   0.016158  -0.001975  -0.006557   0.000559
    25  H    0.494508   0.002022   0.000131   0.000511  -0.000034
    26  C    0.002022   5.230837   0.425341   0.434008   0.386767
    27  H    0.000131   0.425341   0.484528  -0.029086  -0.016462
    28  H    0.000511   0.434008  -0.029086   0.505869  -0.024206
    29  H   -0.000034   0.386767  -0.016462  -0.024206   0.516370
 Mulliken charges:
               1
     1  O   -0.364868
     2  O   -0.384432
     3  N   -0.209494
     4  H    0.280194
     5  C   -0.045408
     6  C    0.256299
     7  C    0.169400
     8  C    0.146618
     9  C   -0.294885
    10  H    0.160594
    11  H    0.155594
    12  C   -0.138448
    13  C    0.153421
    14  C   -0.380544
    15  H    0.123698
    16  H    0.163969
    17  H    0.165872
    18  C   -0.452945
    19  H    0.151281
    20  H    0.153784
    21  H    0.174039
    22  C   -0.483018
    23  H    0.172634
    24  H    0.147703
    25  H    0.160923
    26  C   -0.503679
    27  H    0.192915
    28  H    0.174259
    29  H    0.154524
 Sum of Mulliken charges =  -0.00000
 Mulliken charges with hydrogens summed into heavy atoms:
               1
     1  O   -0.364868
     2  O   -0.384432
     3  N    0.070701
     5  C   -0.045408
     6  C    0.256299
     7  C    0.169400
     8  C    0.146618
     9  C    0.021303
    12  C   -0.138448
    13  C    0.153421
    14  C    0.072995
    18  C    0.026159
    22  C   -0.001758
    26  C    0.018018
 Electronic spatial extent (au):  <R**2>=           3211.8760
 Charge=             -0.0000 electrons
 Dipole moment (field-independent basis, Debye):
    X=              4.0343    Y=              7.6606    Z=              0.2426  Tot=              8.6614
 Quadrupole moment (field-independent basis, Debye-Ang):
   XX=            -99.1588   YY=            -78.1281   ZZ=            -84.9140
   XY=             12.2026   XZ=              3.6173   YZ=             -2.4068
 Traceless Quadrupole moment (field-independent basis, Debye-Ang):
   XX=            -11.7585   YY=              9.2722   ZZ=              2.4863
   XY=             12.2026   XZ=              3.6173   YZ=             -2.4068
 Octapole moment (field-independent basis, Debye-Ang**2):
  XXX=            111.6254  YYY=             65.2761  ZZZ=              0.9049  XYY=            -34.7679
  XXY=             32.8536  XXZ=             -3.3423  XZZ=              0.0781  YZZ=             -1.2403
  YYZ=              4.8911  XYZ=             -5.2246
 Hexadecapole moment (field-independent basis, Debye-Ang**3):
 XXXX=          -3090.8579 YYYY=          -1300.3420 ZZZZ=           -140.3729 XXXY=             30.5385
 XXXZ=             37.9287 YYYX=             87.3230 YYYZ=            -18.8976 ZZZX=             -3.8139
 ZZZY=              1.4481 XXYY=           -695.0929 XXZZ=           -479.3365 YYZZ=           -246.1349
 XXYZ=            -11.1230 YYXZ=             10.5269 ZZXY=              0.3760
 N-N= 8.984417258700D+02 E-N=-3.272728049611D+03  KE= 6.305853036311D+02
 No NMR shielding tensors so no spin-rotation constants.
 Leave Link  601 at Fri Jan 23 22:31:01 2026, MaxMem=  2147483648 cpu:               1.8 elap:               0.1
 (Enter /data/home/wyx/g16/l9999.exe)
 1\1\GINC-CN012\SP\RCAM-B3LYP\TZVP\C11H15N1O2\WYX\23-Jan-2026\0\\#p CAM
 -B3LYP TZVP em=gd3bj scrf=(Solvent=TetraHydroFuran,NonEquilibrium=Read
 ) Geom=Check Guess=Read\\Title Card Required\\0,1\O,0,2.840157,-1.5748
 47,0.017213\O,0,-3.430102,-1.653909,-0.180776\N,0,-0.670481,1.518778,-
 0.152961\H,0,-0.982798,2.480069,-0.201647\C,0,-1.250212,-0.763812,-0.1
 97036\C,0,0.675016,1.341581,-0.008681\C,0,-1.643876,0.584691,-0.228405
 \C,0,-2.209603,-1.850015,-0.197822\C,0,0.189724,-1.077691,-0.160822\H,
 0,0.395095,-1.875606,0.563843\H,0,0.480365,-1.578977,-1.104718\C,0,1.1
 46704,0.026227,0.05146\C,0,2.518601,-0.403432,0.259783\C,0,-3.033737,1
 .108055,-0.358579\H,0,-3.028151,2.195914,-0.431924\H,0,-3.525023,0.702
 609,-1.240708\H,0,-3.64683,0.820441,0.492948\C,0,-1.703276,-3.273564,-
 0.183677\H,0,-2.501282,-3.92619,-0.527291\H,0,-0.823489,-3.429265,-0.8
 03787\H,0,-1.442388,-3.568728,0.835027\C,0,3.572536,0.524789,0.814524\
 H,0,4.076737,1.061124,0.007644\H,0,3.175876,1.256905,1.513154\H,0,4.31
 6988,-0.087046,1.319777\C,0,1.470748,2.60481,0.024276\H,0,1.751247,2.8
 96,1.03832\H,0,2.384308,2.512972,-0.557335\H,0,0.897148,3.428116,-0.40
 1805\\Version=ES64L-G16RevA.03\State=1-A\HF=-633.3180656\RMSD=9.536e-0
 9\Dipole=0.4701972,3.3723721,0.1349342\Quadrupole=-13.2304993,10.86400
 99,2.3664894,2.1669656,1.4334596,-0.5805834\PG=C01 [X(C11H15N1O2)]\\@


 SUCCESS IS NEVER CERTAIN,
 FAILURE IS NEVER FINAL.
 Job cpu time:       0 days  0 hours 11 minutes 38.5 seconds.
 Elapsed time:       0 days  0 hours  0 minutes 44.4 seconds.
 File lengths (MBytes):  RWF=    338 Int=      0 D2E=      0 Chk=     67 Scr=      1
 Normal termination of Gaussian 16 at Fri Jan 23 22:31:01 2026.
