 Entering Gaussian System, Link 0=g16
 Input=DDL-LR-1.gjf
 Output=DDL-LR-1.log
 Initial command:
 /data/home/wyx/g16/l1.exe "/scr/tmp/wyx/13106/Gau-1961346.inp" -scrdir="/scr/tmp/wyx/13106/"
 Entering Link 1 = /data/home/wyx/g16/l1.exe PID=   1961347.
  
 Copyright (c) 1988,1990,1992,1993,1995,1998,2003,2009,2016,
            Gaussian, Inc.  All Rights Reserved.
  
 This is part of the Gaussian(R) 16 program.  It is based on
 the Gaussian(R) 09 system (copyright 2009, Gaussian, Inc.),
 the Gaussian(R) 03 system (copyright 2003, Gaussian, Inc.),
 the Gaussian(R) 98 system (copyright 1998, Gaussian, Inc.),
 the Gaussian(R) 94 system (copyright 1995, Gaussian, Inc.),
 the Gaussian 92(TM) system (copyright 1992, Gaussian, Inc.),
 the Gaussian 90(TM) system (copyright 1990, Gaussian, Inc.),
 the Gaussian 88(TM) system (copyright 1988, Gaussian, Inc.),
 the Gaussian 86(TM) system (copyright 1986, Carnegie Mellon
 University), and the Gaussian 82(TM) system (copyright 1983,
 Carnegie Mellon University). Gaussian is a federally registered
 trademark of Gaussian, Inc.
  
 This software contains proprietary and confidential information,
 including trade secrets, belonging to Gaussian, Inc.
  
 This software is provided under written license and may be
 used, copied, transmitted, or stored only in accord with that
 written license.
  
 The following legend is applicable only to US Government
 contracts under FAR:
  
                    RESTRICTED RIGHTS LEGEND
  
 Use, reproduction and disclosure by the US Government is
 subject to restrictions as set forth in subparagraphs (a)
 and (c) of the Commercial Computer Software - Restricted
 Rights clause in FAR 52.227-19.
  
 Gaussian, Inc.
 340 Quinnipiac St., Bldg. 40, Wallingford CT 06492
  
  
 ---------------------------------------------------------------
 Warning -- This program may not be used in any manner that
 competes with the business of Gaussian, Inc. or will provide
 assistance to any competitor of Gaussian, Inc.  The licensee
 of this program is prohibited from giving any competitor of
 Gaussian, Inc. access to this program.  By using this program,
 the user acknowledges that Gaussian, Inc. is engaged in the
 business of creating and licensing software in the field of
 computational chemistry and represents and warrants to the
 licensee that it is not a competitor of Gaussian, Inc. and that
 it will not use this program in any manner prohibited above.
 ---------------------------------------------------------------
  

 Cite this work as:
 Gaussian 16, Revision A.03,
 M. J. Frisch, G. W. Trucks, H. B. Schlegel, G. E. Scuseria, 
 M. A. Robb, J. R. Cheeseman, G. Scalmani, V. Barone, 
 G. A. Petersson, H. Nakatsuji, X. Li, M. Caricato, A. V. Marenich, 
 J. Bloino, B. G. Janesko, R. Gomperts, B. Mennucci, H. P. Hratchian, 
 J. V. Ortiz, A. F. Izmaylov, J. L. Sonnenberg, D. Williams-Young, 
 F. Ding, F. Lipparini, F. Egidi, J. Goings, B. Peng, A. Petrone, 
 T. Henderson, D. Ranasinghe, V. G. Zakrzewski, J. Gao, N. Rega, 
 G. Zheng, W. Liang, M. Hada, M. Ehara, K. Toyota, R. Fukuda, 
 J. Hasegawa, M. Ishida, T. Nakajima, Y. Honda, O. Kitao, H. Nakai, 
 T. Vreven, K. Throssell, J. A. Montgomery, Jr., J. E. Peralta, 
 F. Ogliaro, M. J. Bearpark, J. J. Heyd, E. N. Brothers, K. N. Kudin, 
 V. N. Staroverov, T. A. Keith, R. Kobayashi, J. Normand, 
 K. Raghavachari, A. P. Rendell, J. C. Burant, S. S. Iyengar, 
 J. Tomasi, M. Cossi, J. M. Millam, M. Klene, C. Adamo, R. Cammi, 
 J. W. Ochterski, R. L. Martin, K. Morokuma, O. Farkas, 
 J. B. Foresman, and D. J. Fox, Gaussian, Inc., Wallingford CT, 2016.
 
 ******************************************
 Gaussian 16:  ES64L-G16RevA.03 25-Dec-2016
                23-Jan-2026 
 ******************************************
 %nprocshared=16
 Will use up to   16 processors via shared memory.
 %mem=16GB
 %chk=DDL-LR-1.chk
 ----------------------------------------------------------------------
 #p CAM-B3LYP TZVP em=gd3bj td(nstates=6,root=1) scrf=(Solvent=TetraHyd
 roFuran)
 ----------------------------------------------------------------------
 1/38=1,172=1/1;
 2/12=2,17=6,18=5,40=1/2;
 3/5=19,7=101,11=9,25=1,30=1,70=2201,72=20,74=-40,124=41/1,2,3,8;
 4//1;
 5/5=2,38=5,53=20/2;
 8/6=1,10=1,107=1,108=6/1;
 9/8=1,41=6,42=1,70=2/14;
 6/7=2,8=2,9=2,10=2/1;
 99/5=1,9=1/99;
 Leave Link    1 at Fri Jan 23 15:09:09 2026, MaxMem=  2147483648 cpu:               0.4 elap:               0.1
 (Enter /data/home/wyx/g16/l101.exe)
 -------------------
 Title Card Required
 -------------------
 Symbolic Z-matrix:
 Charge =  0 Multiplicity = 1
 O                     2.84016  -1.57485   0.01721 
 O                    -3.4301   -1.65391  -0.18078 
 N                    -0.67048   1.51878  -0.15296 
 H                    -0.9828    2.48007  -0.20165 
 C                    -1.25021  -0.76381  -0.19704 
 C                     0.67502   1.34158  -0.00868 
 C                    -1.64388   0.58469  -0.22841 
 C                    -2.2096   -1.85002  -0.19782 
 C                     0.18972  -1.07769  -0.16082 
 H                     0.3951   -1.87561   0.56384 
 H                     0.48037  -1.57898  -1.10472 
 C                     1.1467    0.02623   0.05146 
 C                     2.5186   -0.40343   0.25978 
 C                    -3.03374   1.10806  -0.35858 
 H                    -3.02815   2.19591  -0.43192 
 H                    -3.52502   0.70261  -1.24071 
 H                    -3.64683   0.82044   0.49295 
 C                    -1.70328  -3.27356  -0.18368 
 H                    -2.50128  -3.92619  -0.52729 
 H                    -0.82349  -3.42927  -0.80379 
 H                    -1.44239  -3.56873   0.83503 
 C                     3.57254   0.52479   0.81452 
 H                     4.07674   1.06112   0.00764 
 H                     3.17588   1.25691   1.51315 
 H                     4.31699  -0.08705   1.31978 
 C                     1.47075   2.60481   0.02428 
 H                     1.75125   2.896     1.03832 
 H                     2.38431   2.51297  -0.55734 
 H                     0.89715   3.42812  -0.40181 
 
 ITRead=  0  0  0  0  0  0  0  0  0  0  0  0  0  0  0  0  0  0  0  0
 ITRead=  0  0  0  0  0  0  0  0  0
 MicOpt= -1 -1 -1 -1 -1 -1 -1 -1 -1 -1 -1 -1 -1 -1 -1 -1 -1 -1 -1 -1
 MicOpt= -1 -1 -1 -1 -1 -1 -1 -1 -1
 NAtoms=     29 NQM=       29 NQMF=       0 NMMI=      0 NMMIF=      0
                NMic=       0 NMicF=      0.
                    Isotopes and Nuclear Properties:
 (Nuclear quadrupole moments (NQMom) in fm**2, nuclear magnetic moments (NMagM)
  in nuclear magnetons)

  Atom         1           2           3           4           5           6           7           8           9          10
 IAtWgt=          16          16          14           1          12          12          12          12          12           1
 AtmWgt=  15.9949146  15.9949146  14.0030740   1.0078250  12.0000000  12.0000000  12.0000000  12.0000000  12.0000000   1.0078250
 NucSpn=           0           0           2           1           0           0           0           0           0           1
 AtZEff=  -0.0000000  -0.0000000  -0.0000000  -0.0000000  -0.0000000  -0.0000000  -0.0000000  -0.0000000  -0.0000000  -0.0000000
 NQMom=    0.0000000   0.0000000   2.0440000   0.0000000   0.0000000   0.0000000   0.0000000   0.0000000   0.0000000   0.0000000
 NMagM=    0.0000000   0.0000000   0.4037610   2.7928460   0.0000000   0.0000000   0.0000000   0.0000000   0.0000000   2.7928460
 AtZNuc=   8.0000000   8.0000000   7.0000000   1.0000000   6.0000000   6.0000000   6.0000000   6.0000000   6.0000000   1.0000000

  Atom        11          12          13          14          15          16          17          18          19          20
 IAtWgt=           1          12          12          12           1           1           1          12           1           1
 AtmWgt=   1.0078250  12.0000000  12.0000000  12.0000000   1.0078250   1.0078250   1.0078250  12.0000000   1.0078250   1.0078250
 NucSpn=           1           0           0           0           1           1           1           0           1           1
 AtZEff=  -0.0000000  -0.0000000  -0.0000000  -0.0000000  -0.0000000  -0.0000000  -0.0000000  -0.0000000  -0.0000000  -0.0000000
 NQMom=    0.0000000   0.0000000   0.0000000   0.0000000   0.0000000   0.0000000   0.0000000   0.0000000   0.0000000   0.0000000
 NMagM=    2.7928460   0.0000000   0.0000000   0.0000000   2.7928460   2.7928460   2.7928460   0.0000000   2.7928460   2.7928460
 AtZNuc=   1.0000000   6.0000000   6.0000000   6.0000000   1.0000000   1.0000000   1.0000000   6.0000000   1.0000000   1.0000000

  Atom        21          22          23          24          25          26          27          28          29
 IAtWgt=           1          12           1           1           1          12           1           1           1
 AtmWgt=   1.0078250  12.0000000   1.0078250   1.0078250   1.0078250  12.0000000   1.0078250   1.0078250   1.0078250
 NucSpn=           1           0           1           1           1           0           1           1           1
 AtZEff=  -0.0000000  -0.0000000  -0.0000000  -0.0000000  -0.0000000  -0.0000000  -0.0000000  -0.0000000  -0.0000000
 NQMom=    0.0000000   0.0000000   0.0000000   0.0000000   0.0000000   0.0000000   0.0000000   0.0000000   0.0000000
 NMagM=    2.7928460   0.0000000   2.7928460   2.7928460   2.7928460   0.0000000   2.7928460   2.7928460   2.7928460
 AtZNuc=   1.0000000   6.0000000   1.0000000   1.0000000   1.0000000   6.0000000   1.0000000   1.0000000   1.0000000
 Leave Link  101 at Fri Jan 23 15:09:10 2026, MaxMem=  2147483648 cpu:               0.8 elap:               0.1
 (Enter /data/home/wyx/g16/l202.exe)
                          Input orientation:                          
 ---------------------------------------------------------------------
 Center     Atomic      Atomic             Coordinates (Angstroms)
 Number     Number       Type             X           Y           Z
 ---------------------------------------------------------------------
      1          8           0        2.840157   -1.574847    0.017213
      2          8           0       -3.430102   -1.653909   -0.180776
      3          7           0       -0.670481    1.518778   -0.152961
      4          1           0       -0.982798    2.480069   -0.201647
      5          6           0       -1.250212   -0.763812   -0.197036
      6          6           0        0.675016    1.341581   -0.008681
      7          6           0       -1.643876    0.584691   -0.228405
      8          6           0       -2.209603   -1.850015   -0.197822
      9          6           0        0.189724   -1.077691   -0.160822
     10          1           0        0.395095   -1.875606    0.563843
     11          1           0        0.480365   -1.578977   -1.104718
     12          6           0        1.146704    0.026227    0.051460
     13          6           0        2.518601   -0.403432    0.259783
     14          6           0       -3.033737    1.108055   -0.358579
     15          1           0       -3.028151    2.195914   -0.431924
     16          1           0       -3.525023    0.702609   -1.240708
     17          1           0       -3.646830    0.820441    0.492948
     18          6           0       -1.703276   -3.273564   -0.183677
     19          1           0       -2.501282   -3.926190   -0.527291
     20          1           0       -0.823489   -3.429265   -0.803787
     21          1           0       -1.442388   -3.568728    0.835027
     22          6           0        3.572536    0.524789    0.814524
     23          1           0        4.076737    1.061124    0.007644
     24          1           0        3.175876    1.256905    1.513154
     25          1           0        4.316988   -0.087046    1.319777
     26          6           0        1.470748    2.604810    0.024276
     27          1           0        1.751247    2.896000    1.038320
     28          1           0        2.384308    2.512972   -0.557335
     29          1           0        0.897148    3.428116   -0.401805
 ---------------------------------------------------------------------
                    Distance matrix (angstroms):
                    1          2          3          4          5
     1  O    0.000000
     2  O    6.273882   0.000000
     3  N    4.682313   4.205024   0.000000
     4  H    5.577206   4.804114   1.011925   0.000000
     5  C    4.175500   2.354667   2.355472   3.254888   0.000000
     6  C    3.632363   5.084739   1.364763   2.020331   2.859136
     7  C    4.983020   2.864298   1.351188   2.007535   1.405139
     8  C    5.061821   1.236271   3.704008   4.500521   1.449230
     9  C    2.702528   3.665456   2.735263   3.746216   1.474194
    10  H    2.523408   3.903298   3.629201   4.632113   2.126513
    11  H    2.612923   4.018835   3.438950   4.408201   2.117375
    12  C    2.330750   4.880978   2.360436   3.258862   2.535965
    13  C    1.238730   6.094658   3.746397   4.559308   3.813464
    14  C    6.468525   2.795919   2.407478   2.472529   2.590549
    15  H    6.989807   3.878889   2.468794   2.077797   3.460667
    16  H    6.876386   2.585661   3.161920   3.271379   2.900760
    17  H    6.931430   2.573574   3.124664   3.214637   2.954609
    18  C    4.854769   2.367534   4.902464   5.798595   2.550353
    19  H    5.861422   2.479121   5.756703   6.591813   3.416852
    20  H    4.187506   3.214726   4.993007   5.942069   2.766745
    21  H    4.794223   2.940985   5.239721   6.154174   2.994936
    22  C    2.362320   7.400965   4.463993   5.060315   5.093392
    23  H    2.911626   7.984957   4.771930   5.258907   5.634596
    24  H    3.220150   7.414930   4.199878   4.661678   5.157354
    25  H    2.468047   8.045130   5.442653   6.082149   5.809686
    26  C    4.398280   6.495927   2.407434   2.467081   4.335922
    27  H    4.713476   7.002446   3.029960   3.030762   4.891736
    28  H    4.153091   7.163244   3.237851   3.386000   4.906818
    29  H    5.383354   6.678392   2.482933   2.114959   4.714376
                    6          7          8          9         10
     6  C    0.000000
     7  C    2.449167   0.000000
     8  C    4.306168   2.499755   0.000000
     9  C    2.472151   2.475918   2.520838   0.000000
    10  H    3.279700   3.292130   2.713898   1.097262   0.000000
    11  H    3.125515   3.156229   2.851640   1.107565   1.696866
    12  C    1.398665   2.859640   3.853209   1.476316   2.108180
    13  C    2.552636   4.305918   4.965674   2.460732   2.601735
    14  C    3.732534   1.490828   3.074934   3.899653   4.637886
    15  H    3.823933   2.133935   4.134533   4.598337   5.411787
    16  H    4.423404   2.139480   3.055132   4.258517   5.027019
    17  H    4.381960   2.141904   3.110325   4.330065   4.859100
    18  C    5.194849   3.858971   1.510979   2.899281   2.629873
    19  H    6.173106   4.601361   2.122293   3.935703   3.712744
    20  H    5.063465   4.137142   2.186901   2.640058   2.401919
    21  H    5.413536   4.292129   2.146944   3.140186   2.513274
    22  C    3.120967   5.319985   6.332272   3.868160   3.990096
    23  H    3.413302   5.745269   6.930730   4.439795   4.742175
    24  H    2.928729   5.168647   6.448548   4.143626   4.294946
    25  H    4.131554   6.195159   6.928749   4.495315   4.376257
    26  C    1.493326   3.720969   5.782714   3.903344   4.639212
    27  H    2.161181   4.298093   6.304049   4.434695   4.983222
    28  H    2.143562   4.478027   6.345780   4.226853   4.947083
    29  H    2.134834   3.817321   6.127983   4.567364   5.414241
                   11         12         13         14         15
    11  H    0.000000
    12  C    2.087447   0.000000
    13  C    2.719959   1.452621   0.000000
    14  C    4.486176   4.337577   5.787523   0.000000
    15  H    5.197320   4.729759   6.164537   1.090343   0.000000
    16  H    4.611644   4.894101   6.324570   1.088072   1.769456
    17  H    5.034231   4.878899   6.290053   1.087981   1.769203
    18  C    2.913457   4.366497   5.124311   4.582500   5.633126
    19  H    3.838365   5.409654   6.182923   5.065135   6.145473
    20  H    2.283454   4.068603   4.632107   5.066624   6.053219
    21  H    3.379157   4.499008   5.102885   5.082262   6.111539
    22  C    4.203670   2.591427   1.510004   6.734925   6.922092
    23  H    4.597975   3.107736   2.153204   7.120054   7.208356
    24  H    4.707575   2.787231   2.181666   6.487283   6.569248
    25  H    4.777417   3.416454   2.111370   7.634023   7.888690
    26  C    4.445173   2.599006   3.194210   4.762062   4.540419
    27  H    5.121833   3.094344   3.475803   5.295672   5.049196
    28  H    4.546281   2.843624   3.031687   5.600760   5.423188
    29  H    5.073340   3.441014   4.212786   4.564691   4.114268
                   16         17         18         19         20
    16  H    0.000000
    17  H    1.741920   0.000000
    18  C    4.499559   4.582150   0.000000
    19  H    4.794037   4.988354   1.086648   0.000000
    20  H    4.955963   5.264293   1.087568   1.771546   0.000000
    21  H    5.185592   4.923554   1.092219   1.762086   1.757327
    22  C    7.391275   7.232570   6.577088   7.648722   6.130131
    23  H    7.711917   7.742541   7.227356   8.272230   6.695837
    24  H    7.265882   6.912354   6.870990   7.953491   6.582046
    25  H    8.287145   8.057889   6.975518   8.039869   6.488795
    26  C    5.493294   5.439966   6.683783   7.663890   6.508400
    27  H    6.151744   5.809011   7.175690   8.190080   7.073302
    28  H    6.218087   6.351565   7.094502   8.082865   6.757284
    29  H    5.261914   5.314912   7.191822   8.102524   7.081374
                   21         22         23         24         25
    21  H    0.000000
    22  C    6.473543   0.000000
    23  H    7.251264   1.092213   0.000000
    24  H    6.713788   1.086930   1.765344   0.000000
    25  H    6.747407   1.088040   1.760031   1.773622   0.000000
    26  C    6.874318   3.060799   3.028931   2.634590   4.126196
    27  H    7.213414   2.998303   3.136394   2.222986   3.944719
    28  H    7.319108   2.691980   2.300300   2.547785   3.744181
    29  H    7.480575   4.131158   3.984983   3.684267   5.197645
                   26         27         28         29
    26  C    0.000000
    27  H    1.091676   0.000000
    28  H    1.086875   1.758861   0.000000
    29  H    1.090135   1.756870   1.753090   0.000000
 Stoichiometry    C11H15NO2
 Framework group  C1[X(C11H15NO2)]
 Deg. of freedom    81
 Full point group                 C1      NOp   1
 Largest Abelian subgroup         C1      NOp   1
 Largest concise Abelian subgroup C1      NOp   1
                         Standard orientation:                         
 ---------------------------------------------------------------------
 Center     Atomic      Atomic             Coordinates (Angstroms)
 Number     Number       Type             X           Y           Z
 ---------------------------------------------------------------------
      1          8           0        2.282469   -2.287186   -0.286808
      2          8           0       -3.634502   -0.262560    0.215123
      3          7           0        0.017773    1.804273   -0.051923
      4          1           0        0.043333    2.815829   -0.061563
      5          6           0       -1.296428   -0.150463   -0.040415
      6          6           0        1.232774    1.182745   -0.059263
      7          6           0       -1.215128    1.252204   -0.022196
      8          6           0       -2.559590   -0.853555    0.061322
      9          6           0       -0.050141   -0.927757   -0.166232
     10          1           0       -0.050870   -1.777677    0.527757
     11          1           0       -0.044305   -1.457854   -1.138684
     12          6           0        1.238636   -0.215906   -0.057452
     13          6           0        2.400164   -1.086664   -0.005122
     14          6           0       -2.353890    2.213983    0.005521
     15          1           0       -1.990756    3.239757   -0.063548
     16          1           0       -3.041452    2.032351   -0.817989
     17          1           0       -2.936221    2.112388    0.918906
     18          6           0       -2.562420   -2.363763    0.013121
     19          1           0       -3.564356   -2.698152   -0.242051
     20          1           0       -1.855389   -2.778193   -0.701833
     21          1           0       -2.311787   -2.770813    0.995178
     22          6           0        3.756164   -0.586762    0.432454
     23          1           0        4.324750   -0.216438   -0.423408
     24          1           0        3.703216    0.206222    1.173932
     25          1           0        4.299876   -1.432129    0.849063
     26          6           0        2.405540    2.105817   -0.110062
     27          1           0        2.871057    2.244682    0.867572
     28          1           0        3.169635    1.738686   -0.790261
     29          1           0        2.101028    3.090119   -0.466177
 ---------------------------------------------------------------------
 Rotational constants (GHZ):           1.0716158           0.4894092           0.3421197
 Leave Link  202 at Fri Jan 23 15:09:10 2026, MaxMem=  2147483648 cpu:               0.0 elap:               0.0
 (Enter /data/home/wyx/g16/l301.exe)
 Standard basis: TZVP (5D, 7F)
 Ernie: Thresh=  0.10000D-02 Tol=  0.10000D-05 Strict=F.
 There are   370 symmetry adapted cartesian basis functions of A   symmetry.
 There are   356 symmetry adapted basis functions of A   symmetry.
   356 basis functions,   610 primitive gaussians,   370 cartesian basis functions
    52 alpha electrons       52 beta electrons
       nuclear repulsion energy       898.4678281238 Hartrees.
 IExCor=20419 DFT=T Ex+Corr=CAM-B3LYP ExCW=0 ScaHFX=  1.000000
 ScaDFX=  1.000000  1.000000  1.000000  0.810000 ScalE2=  1.000000  1.000000
 IRadAn=      5 IRanWt=     -1 IRanGd=            0 ICorTp=0 IEmpDi=141
 HFx  wShort=  0.000000 wLong=  0.330000 cFull=  0.190000 cShort=  0.000000 cLong=  0.460000
 DFx  wShort=  0.000000 wLong=  0.330000 cFull=  0.190000 cShort=  0.000000 cLong=  0.460000
 NAtoms=   29 NActive=   29 NUniq=   29 SFac= 1.00D+00 NAtFMM=   60 NAOKFM=F Big=F
 Integral buffers will be    131072 words long.
 Raffenetti 1 integral format.
 Two-electron integral symmetry is turned on.
 R6Disp:  Grimme-D3(BJ) Dispersion energy=       -0.0261022539 Hartrees.
 Nuclear repulsion after empirical dispersion term =      898.4417258700 Hartrees.
 ------------------------------------------------------------------------------
 Polarizable Continuum Model (PCM)
 =================================
 Model                : PCM.
 Atomic radii         : UFF (Universal Force Field).
 Polarization charges : Total charges.
 Charge compensation  : None.
 Solution method      : On-the-fly selection.
 Cavity type          : Scaled VdW (van der Waals Surface) (Alpha=1.100).
 Cavity algorithm     : GePol (No added spheres)
                        Default sphere list used, NSphG=   29.
                        Lebedev-Laikov grids with approx.  5.0 points / Ang**2.
                        Smoothing algorithm: York/Karplus (Gamma=1.0000).
                        Polarization charges: spherical gaussians, with
                                              point-specific exponents (IZeta= 3).
                        Self-potential: point-specific (ISelfS= 7).
                        Self-field    : sphere-specific E.n sum rule (ISelfD= 2).
 Solvent              : TetraHydroFuran, Eps=   7.425700 Eps(inf)=   1.974025
 ------------------------------------------------------------------------------
 GePol: Number of generator spheres                  =      29
 GePol: Total number of spheres                      =      29
 GePol: Number of exposed spheres                    =      29 (100.00%)
 GePol: Number of points                             =    2096
 GePol: Average weight of points                     =       0.13
 GePol: Minimum weight of points                     =   0.41D-10
 GePol: Maximum weight of points                     =    0.20577
 GePol: Number of points with low weight             =     125
 GePol: Fraction of low-weight points (<1% of avg)   =       5.96%
 GePol: Cavity surface area                          =    269.664 Ang**2
 GePol: Cavity volume                                =    287.654 Ang**3
 Leave Link  301 at Fri Jan 23 15:09:10 2026, MaxMem=  2147483648 cpu:               0.6 elap:               0.0
 (Enter /data/home/wyx/g16/l302.exe)
 NPDir=0 NMtPBC=     1 NCelOv=     1 NCel=       1 NClECP=     1 NCelD=      1
         NCelK=      1 NCelE2=     1 NClLst=     1 CellRange=     0.0.
 One-electron integrals computed using PRISM.
 One-electron integral symmetry used in STVInt
 NBasis=   356 RedAO= T EigKep=  3.89D-05  NBF=   356
 NBsUse=   356 1.00D-06 EigRej= -1.00D+00 NBFU=   356
 Precomputing XC quadrature grid using
 IXCGrd= 4 IRadAn=           5 IRanWt=          -1 IRanGd=           0 AccXCQ= 0.00D+00.
 Generated NRdTot=       0 NPtTot=           0 NUsed=           0 NTot=          32
 NSgBfM=   366   366   366   366   366 MxSgAt=    29 MxSgA2=    29.
 Leave Link  302 at Fri Jan 23 15:09:10 2026, MaxMem=  2147483648 cpu:               3.1 elap:               0.2
 (Enter /data/home/wyx/g16/l303.exe)
 DipDrv:  MaxL=1.
 Leave Link  303 at Fri Jan 23 15:09:10 2026, MaxMem=  2147483648 cpu:               0.6 elap:               0.0
 (Enter /data/home/wyx/g16/l308.exe)
 Leave Link  308 at Fri Jan 23 15:09:11 2026, MaxMem=  2147483648 cpu:               0.7 elap:               0.1
 (Enter /data/home/wyx/g16/l401.exe)
 ExpMin= 9.52D-02 ExpMax= 2.70D+04 ExpMxC= 9.22D+02 IAcc=3 IRadAn=         5 AccDes= 0.00D+00
 Harris functional with IExCor=20419 and IRadAn=       5 diagonalized for initial guess.
 HarFok:  IExCor=20419 AccDes= 0.00D+00 IRadAn=         5 IDoV= 1 UseB2=F ITyADJ=14
 ICtDFT=  3500011 ScaDFX=  1.000000  1.000000  1.000000  1.000000
 FoFCou: FMM=F IPFlag=           0 FMFlag=      100000 FMFlg1=           0
         NFxFlg=           0 DoJE=T BraDBF=F KetDBF=T FulRan=T
         wScrn=  0.000000 ICntrl=       500 IOpCl=  0 I1Cent=   200000004 NGrid=           0
         NMat0=    1 NMatS0=      1 NMatT0=    0 NMatD0=    1 NMtDS0=    0 NMtDT0=    0
 Petite list used in FoFCou.
 Harris En= -608.710381712495    
 JPrj=0 DoOrth=F DoCkMO=F.
 Leave Link  401 at Fri Jan 23 15:09:12 2026, MaxMem=  2147483648 cpu:              11.7 elap:               0.8
 (Enter /data/home/wyx/g16/l502.exe)
 Integral symmetry usage will be decided dynamically.
 Closed shell SCF:
 Using DIIS extrapolation, IDIIS=  1040.
 NGot=  2147483648 LenX=  2147200095 LenY=  2147062754
 Requested convergence on RMS density matrix=1.00D-08 within 128 cycles.
 Requested convergence on MAX density matrix=1.00D-06.
 Requested convergence on             energy=1.00D-06.
 No special actions if energy rises.
 Fock matrices will be formed incrementally for  20 cycles.

 Cycle   1  Pass 1  IDiag  1:
 FoFJK:  IHMeth= 1 ICntrl=       0 DoSepK=T KAlg= 0 I1Cent=           0 FoldK=F
 IRaf=         1 NMat=       1 IRICut=       1 DoRegI=T DoRafI=F ISym2E= 0 IDoP0=0 IntGTp=1.
 FoFCou: FMM=F IPFlag=           0 FMFlag=      100000 FMFlg1=           0
         NFxFlg=           0 DoJE=T BraDBF=F KetDBF=F FulRan=T
         wScrn=  0.000000 ICntrl=       500 IOpCl=  0 I1Cent=           0 NGrid=           0
         NMat0=    1 NMatS0=      1 NMatT0=    0 NMatD0=    1 NMtDS0=    0 NMtDT0=    0
 Symmetry not used in FoFCou.
 Inv3:  Mode=1 IEnd=    13179648.
 Iteration    1 A*A^-1 deviation from unit magnitude is 2.89D-15 for   1664.
 Iteration    1 A*A^-1 deviation from orthogonality  is 1.67D-15 for   1908     94.
 Iteration    1 A^-1*A deviation from unit magnitude is 2.89D-15 for   1664.
 Iteration    1 A^-1*A deviation from orthogonality  is 1.06D-14 for   1369   1339.
 E= -633.113694595537    
 DIIS: error= 4.12D-02 at cycle   1 NSaved=   1.
 NSaved= 1 IEnMin= 1 EnMin= -633.113694595537     IErMin= 1 ErrMin= 4.12D-02
 ErrMax= 4.12D-02  0.00D+00 EMaxC= 1.00D-01 BMatC= 1.10D+00 BMatP= 1.10D+00
 IDIUse=3 WtCom= 5.88D-01 WtEn= 4.12D-01
 Coeff-Com:  0.100D+01
 Coeff-En:   0.100D+01
 Coeff:      0.100D+01
 Gap=     0.197 Goal=   None    Shift=    0.000
 GapD=    0.197 DampG=1.000 DampE=0.500 DampFc=0.5000 IDamp=-1.
 Damping current iteration by 5.00D-01
 RMSDP=3.93D-03 MaxDP=1.66D-01              OVMax= 1.70D-01

 Cycle   2  Pass 1  IDiag  1:
 RMSU=  1.76D-03    CP:  9.37D-01
 E= -633.210776942483     Delta-E=       -0.097082346946 Rises=F Damp=T
 DIIS: error= 2.04D-02 at cycle   2 NSaved=   2.
 NSaved= 2 IEnMin= 2 EnMin= -633.210776942483     IErMin= 2 ErrMin= 2.04D-02
 ErrMax= 2.04D-02  0.00D+00 EMaxC= 1.00D-01 BMatC= 2.24D-01 BMatP= 1.10D+00
 IDIUse=3 WtCom= 7.96D-01 WtEn= 2.04D-01
 Coeff-Com: -0.572D+00 0.157D+01
 Coeff-En:   0.000D+00 0.100D+01
 Coeff:     -0.455D+00 0.146D+01
 Gap=     0.222 Goal=   None    Shift=    0.000
 RMSDP=1.69D-03 MaxDP=6.80D-02 DE=-9.71D-02 OVMax= 1.59D-01

 Cycle   3  Pass 1  IDiag  1:
 RMSU=  1.57D-03    CP:  9.04D-01  1.24D+00
 E= -633.255776228323     Delta-E=       -0.044999285840 Rises=F Damp=F
 DIIS: error= 1.64D-02 at cycle   3 NSaved=   3.
 NSaved= 3 IEnMin= 3 EnMin= -633.255776228323     IErMin= 3 ErrMin= 1.64D-02
 ErrMax= 1.64D-02  0.00D+00 EMaxC= 1.00D-01 BMatC= 7.19D-02 BMatP= 2.24D-01
 IDIUse=3 WtCom= 8.36D-01 WtEn= 1.64D-01
 Coeff-Com: -0.363D+00 0.799D+00 0.564D+00
 Coeff-En:   0.000D+00 0.481D-01 0.952D+00
 Coeff:     -0.304D+00 0.676D+00 0.628D+00
 Gap=     0.217 Goal=   None    Shift=    0.000
 RMSDP=1.35D-03 MaxDP=6.62D-02 DE=-4.50D-02 OVMax= 9.33D-02

 Cycle   4  Pass 1  IDiag  1:
 RMSU=  5.33D-04    CP:  8.63D-01  1.72D+00  5.39D-01
 E= -633.310886782910     Delta-E=       -0.055110554587 Rises=F Damp=F
 DIIS: error= 5.60D-03 at cycle   4 NSaved=   4.
 NSaved= 4 IEnMin= 4 EnMin= -633.310886782910     IErMin= 4 ErrMin= 5.60D-03
 ErrMax= 5.60D-03  0.00D+00 EMaxC= 1.00D-01 BMatC= 9.06D-03 BMatP= 7.19D-02
 IDIUse=3 WtCom= 9.44D-01 WtEn= 5.60D-02
 Coeff-Com: -0.159D+00 0.345D+00 0.366D+00 0.448D+00
 Coeff-En:   0.000D+00 0.000D+00 0.621D-01 0.938D+00
 Coeff:     -0.150D+00 0.325D+00 0.349D+00 0.476D+00
 Gap=     0.214 Goal=   None    Shift=    0.000
 RMSDP=3.68D-04 MaxDP=2.18D-02 DE=-5.51D-02 OVMax= 2.31D-02

 Cycle   5  Pass 1  IDiag  1:
 RMSU=  1.04D-04    CP:  8.72D-01  1.64D+00  6.92D-01  6.52D-01
 E= -633.318290691537     Delta-E=       -0.007403908626 Rises=F Damp=F
 DIIS: error= 4.58D-04 at cycle   5 NSaved=   5.
 NSaved= 5 IEnMin= 5 EnMin= -633.318290691537     IErMin= 5 ErrMin= 4.58D-04
 ErrMax= 4.58D-04  0.00D+00 EMaxC= 1.00D-01 BMatC= 8.48D-05 BMatP= 9.06D-03
 IDIUse=3 WtCom= 9.95D-01 WtEn= 4.58D-03
 Coeff-Com: -0.170D-01 0.361D-01 0.532D-01 0.137D+00 0.791D+00
 Coeff-En:   0.000D+00 0.000D+00 0.000D+00 0.000D+00 0.100D+01
 Coeff:     -0.169D-01 0.359D-01 0.530D-01 0.136D+00 0.792D+00
 Gap=     0.215 Goal=   None    Shift=    0.000
 RMSDP=1.40D-04 MaxDP=9.70D-03 DE=-7.40D-03 OVMax= 2.02D-03

 Cycle   6  Pass 1  IDiag  1:
 RMSU=  5.34D-05    CP:  8.66D-01  1.68D+00  6.97D-01  7.91D-01  1.14D+00
 E= -633.318345181200     Delta-E=       -0.000054489664 Rises=F Damp=F
 DIIS: error= 4.23D-04 at cycle   6 NSaved=   6.
 NSaved= 6 IEnMin= 6 EnMin= -633.318345181200     IErMin= 6 ErrMin= 4.23D-04
 ErrMax= 4.23D-04  0.00D+00 EMaxC= 1.00D-01 BMatC= 2.93D-05 BMatP= 8.48D-05
 IDIUse=3 WtCom= 9.96D-01 WtEn= 4.23D-03
 Coeff-Com:  0.167D-01-0.365D-01-0.297D-01 0.279D-02 0.478D+00 0.568D+00
 Coeff-En:   0.000D+00 0.000D+00 0.000D+00 0.000D+00 0.101D+00 0.899D+00
 Coeff:      0.166D-01-0.364D-01-0.296D-01 0.277D-02 0.477D+00 0.570D+00
 Gap=     0.215 Goal=   None    Shift=    0.000
 RMSDP=2.61D-05 MaxDP=1.34D-03 DE=-5.45D-05 OVMax= 2.64D-03

 Cycle   7  Pass 1  IDiag  1:
 RMSU=  1.71D-05    CP:  8.66D-01  1.68D+00  7.00D-01  7.80D-01  1.21D+00
                    CP:  7.42D-01
 E= -633.318369829914     Delta-E=       -0.000024648714 Rises=F Damp=F
 DIIS: error= 5.10D-05 at cycle   7 NSaved=   7.
 NSaved= 7 IEnMin= 7 EnMin= -633.318369829914     IErMin= 7 ErrMin= 5.10D-05
 ErrMax= 5.10D-05  0.00D+00 EMaxC= 1.00D-01 BMatC= 1.03D-06 BMatP= 2.93D-05
 IDIUse=1 WtCom= 1.00D+00 WtEn= 0.00D+00
 Coeff-Com:  0.366D-02-0.791D-02-0.738D-02-0.961D-02 0.154D-01 0.155D+00
 Coeff-Com:  0.851D+00
 Coeff:      0.366D-02-0.791D-02-0.738D-02-0.961D-02 0.154D-01 0.155D+00
 Coeff:      0.851D+00
 Gap=     0.216 Goal=   None    Shift=    0.000
 RMSDP=1.80D-05 MaxDP=9.01D-04 DE=-2.46D-05 OVMax= 5.79D-04

 Cycle   8  Pass 1  IDiag  1:
 RMSU=  4.95D-06    CP:  8.66D-01  1.68D+00  7.02D-01  7.96D-01  1.26D+00
                    CP:  8.74D-01  1.02D+00
 E= -633.318371268686     Delta-E=       -0.000001438771 Rises=F Damp=F
 DIIS: error= 2.80D-05 at cycle   8 NSaved=   8.
 NSaved= 8 IEnMin= 8 EnMin= -633.318371268686     IErMin= 8 ErrMin= 2.80D-05
 ErrMax= 2.80D-05  0.00D+00 EMaxC= 1.00D-01 BMatC= 1.31D-07 BMatP= 1.03D-06
 IDIUse=1 WtCom= 1.00D+00 WtEn= 0.00D+00
 Coeff-Com: -0.504D-03 0.116D-02 0.493D-03-0.563D-02-0.636D-01-0.411D-02
 Coeff-Com:  0.303D+00 0.769D+00
 Coeff:     -0.504D-03 0.116D-02 0.493D-03-0.563D-02-0.636D-01-0.411D-02
 Coeff:      0.303D+00 0.769D+00
 Gap=     0.216 Goal=   None    Shift=    0.000
 RMSDP=4.93D-06 MaxDP=1.90D-04 DE=-1.44D-06 OVMax= 4.08D-04

 Cycle   9  Pass 1  IDiag  1:
 RMSU=  1.43D-06    CP:  8.65D-01  1.68D+00  7.02D-01  8.01D-01  1.28D+00
                    CP:  9.06D-01  1.12D+00  1.24D+00
 E= -633.318371490874     Delta-E=       -0.000000222188 Rises=F Damp=F
 DIIS: error= 5.64D-06 at cycle   9 NSaved=   9.
 NSaved= 9 IEnMin= 9 EnMin= -633.318371490874     IErMin= 9 ErrMin= 5.64D-06
 ErrMax= 5.64D-06  0.00D+00 EMaxC= 1.00D-01 BMatC= 1.98D-08 BMatP= 1.31D-07
 IDIUse=1 WtCom= 1.00D+00 WtEn= 0.00D+00
 Coeff-Com: -0.884D-03 0.193D-02 0.170D-02-0.196D-03-0.253D-01-0.201D-01
 Coeff-Com: -0.376D-01 0.276D+00 0.804D+00
 Coeff:     -0.884D-03 0.193D-02 0.170D-02-0.196D-03-0.253D-01-0.201D-01
 Coeff:     -0.376D-01 0.276D+00 0.804D+00
 Gap=     0.216 Goal=   None    Shift=    0.000
 RMSDP=2.37D-06 MaxDP=1.72D-04 DE=-2.22D-07 OVMax= 1.33D-04

 Cycle  10  Pass 1  IDiag  1:
 RMSU=  9.45D-07    CP:  8.65D-01  1.68D+00  7.02D-01  8.02D-01  1.28D+00
                    CP:  9.28D-01  1.15D+00  1.36D+00  1.05D+00
 E= -633.318371521840     Delta-E=       -0.000000030966 Rises=F Damp=F
 DIIS: error= 2.33D-06 at cycle  10 NSaved=  10.
 NSaved=10 IEnMin=10 EnMin= -633.318371521840     IErMin=10 ErrMin= 2.33D-06
 ErrMax= 2.33D-06  0.00D+00 EMaxC= 1.00D-01 BMatC= 1.65D-09 BMatP= 1.98D-08
 IDIUse=1 WtCom= 1.00D+00 WtEn= 0.00D+00
 Coeff-Com: -0.248D-03 0.536D-03 0.517D-03 0.264D-03-0.412D-02-0.514D-02
 Coeff-Com: -0.391D-01 0.368D-01 0.273D+00 0.738D+00
 Coeff:     -0.248D-03 0.536D-03 0.517D-03 0.264D-03-0.412D-02-0.514D-02
 Coeff:     -0.391D-01 0.368D-01 0.273D+00 0.738D+00
 Gap=     0.216 Goal=   None    Shift=    0.000
 RMSDP=5.06D-07 MaxDP=2.87D-05 DE=-3.10D-08 OVMax= 3.36D-05

 Cycle  11  Pass 1  IDiag  1:
 RMSU=  3.14D-07    CP:  8.65D-01  1.68D+00  7.02D-01  8.03D-01  1.28D+00
                    CP:  9.31D-01  1.15D+00  1.39D+00  1.18D+00  8.67D-01
 E= -633.318371523812     Delta-E=       -0.000000001972 Rises=F Damp=F
 DIIS: error= 1.35D-06 at cycle  11 NSaved=  11.
 NSaved=11 IEnMin=11 EnMin= -633.318371523812     IErMin=11 ErrMin= 1.35D-06
 ErrMax= 1.35D-06  0.00D+00 EMaxC= 1.00D-01 BMatC= 5.36D-10 BMatP= 1.65D-09
 IDIUse=1 WtCom= 1.00D+00 WtEn= 0.00D+00
 Coeff-Com:  0.202D-04-0.470D-04-0.121D-04 0.177D-03 0.231D-02 0.111D-02
 Coeff-Com: -0.159D-01-0.298D-01 0.891D-04 0.416D+00 0.626D+00
 Coeff:      0.202D-04-0.470D-04-0.121D-04 0.177D-03 0.231D-02 0.111D-02
 Coeff:     -0.159D-01-0.298D-01 0.891D-04 0.416D+00 0.626D+00
 Gap=     0.216 Goal=   None    Shift=    0.000
 RMSDP=2.03D-07 MaxDP=1.12D-05 DE=-1.97D-09 OVMax= 1.31D-05

 Cycle  12  Pass 1  IDiag  1:
 RMSU=  8.95D-08    CP:  8.65D-01  1.68D+00  7.02D-01  8.03D-01  1.28D+00
                    CP:  9.32D-01  1.15D+00  1.41D+00  1.18D+00  9.76D-01
                    CP:  8.01D-01
 E= -633.318371524305     Delta-E=       -0.000000000494 Rises=F Damp=F
 DIIS: error= 3.19D-07 at cycle  12 NSaved=  12.
 NSaved=12 IEnMin=12 EnMin= -633.318371524305     IErMin=12 ErrMin= 3.19D-07
 ErrMax= 3.19D-07  0.00D+00 EMaxC= 1.00D-01 BMatC= 4.19D-11 BMatP= 5.36D-10
 IDIUse=1 WtCom= 1.00D+00 WtEn= 0.00D+00
 Coeff-Com:  0.247D-04-0.549D-04-0.369D-04 0.634D-04 0.136D-02 0.912D-03
 Coeff-Com: -0.427D-02-0.158D-01-0.249D-01 0.128D+00 0.296D+00 0.619D+00
 Coeff:      0.247D-04-0.549D-04-0.369D-04 0.634D-04 0.136D-02 0.912D-03
 Coeff:     -0.427D-02-0.158D-01-0.249D-01 0.128D+00 0.296D+00 0.619D+00
 Gap=     0.216 Goal=   None    Shift=    0.000
 RMSDP=4.92D-08 MaxDP=2.40D-06 DE=-4.94D-10 OVMax= 2.48D-06

 Cycle  13  Pass 1  IDiag  1:
 RMSU=  2.53D-08    CP:  8.65D-01  1.68D+00  7.02D-01  8.03D-01  1.28D+00
                    CP:  9.32D-01  1.15D+00  1.41D+00  1.19D+00  9.80D-01
                    CP:  8.97D-01  9.36D-01
 E= -633.318371524345     Delta-E=       -0.000000000040 Rises=F Damp=F
 DIIS: error= 6.39D-08 at cycle  13 NSaved=  13.
 NSaved=13 IEnMin=13 EnMin= -633.318371524345     IErMin=13 ErrMin= 6.39D-08
 ErrMax= 6.39D-08  0.00D+00 EMaxC= 1.00D-01 BMatC= 2.85D-12 BMatP= 4.19D-11
 IDIUse=1 WtCom= 1.00D+00 WtEn= 0.00D+00
 Coeff-Com:  0.638D-05-0.138D-04-0.128D-04-0.789D-05 0.136D-03 0.154D-03
 Coeff-Com:  0.829D-03-0.621D-03-0.999D-02-0.207D-01 0.907D-02 0.197D+00
 Coeff-Com:  0.824D+00
 Coeff:      0.638D-05-0.138D-04-0.128D-04-0.789D-05 0.136D-03 0.154D-03
 Coeff:      0.829D-03-0.621D-03-0.999D-02-0.207D-01 0.907D-02 0.197D+00
 Coeff:      0.824D+00
 Gap=     0.216 Goal=   None    Shift=    0.000
 RMSDP=1.73D-08 MaxDP=6.04D-07 DE=-4.00D-11 OVMax= 1.20D-06

 Cycle  14  Pass 1  IDiag  1:
 RMSU=  1.00D-08    CP:  8.65D-01  1.68D+00  7.02D-01  8.03D-01  1.28D+00
                    CP:  9.32D-01  1.15D+00  1.41D+00  1.19D+00  9.83D-01
                    CP:  9.31D-01  1.02D+00  1.03D+00
 E= -633.318371524347     Delta-E=       -0.000000000002 Rises=F Damp=F
 DIIS: error= 4.42D-08 at cycle  14 NSaved=  14.
 NSaved=14 IEnMin=14 EnMin= -633.318371524347     IErMin=14 ErrMin= 4.42D-08
 ErrMax= 4.42D-08  0.00D+00 EMaxC= 1.00D-01 BMatC= 2.51D-13 BMatP= 2.85D-12
 IDIUse=1 WtCom= 1.00D+00 WtEn= 0.00D+00
 Coeff-Com:  0.778D-06-0.155D-05-0.212D-05-0.688D-05-0.348D-04 0.103D-04
 Coeff-Com:  0.526D-03 0.924D-03-0.157D-02-0.147D-01-0.124D-01 0.195D-01
 Coeff-Com:  0.252D+00 0.756D+00
 Coeff:      0.778D-06-0.155D-05-0.212D-05-0.688D-05-0.348D-04 0.103D-04
 Coeff:      0.526D-03 0.924D-03-0.157D-02-0.147D-01-0.124D-01 0.195D-01
 Coeff:      0.252D+00 0.756D+00
 Gap=     0.216 Goal=   None    Shift=    0.000
 RMSDP=6.06D-09 MaxDP=2.95D-07 DE=-1.93D-12 OVMax= 5.27D-07

 Error on total polarization charges =  0.01441
 SCF Done:  E(RCAM-B3LYP) =  -633.318371524     A.U. after   14 cycles
            NFock= 14  Conv=0.61D-08     -V/T= 2.0043
 KE= 6.305865497856D+02 PE=-3.272770651738D+03 EE= 1.110424004559D+03
 Leave Link  502 at Fri Jan 23 15:10:07 2026, MaxMem=  2147483648 cpu:             873.2 elap:              55.0
 (Enter /data/home/wyx/g16/l801.exe)
 DoSCS=F DFT=T ScalE2(SS,OS)=  1.000000  1.000000
 ExpMin= 9.52D-02 ExpMax= 2.70D+04 ExpMxC= 9.22D+02 IAcc=3 IRadAn=         5 AccDes= 0.00D+00
 HarFok:  IExCor=  205 AccDes= 0.00D+00 IRadAn=         5 IDoV=-2 UseB2=F ITyADJ=14
 ICtDFT= 12500011 ScaDFX=  1.000000  1.000000  1.000000  1.000000
 Largest valence mixing into a core orbital is  5.59D-05
 Largest core mixing into a valence orbital is  1.14D-05
 Range of M.O.s used for correlation:    15   356
 NBasis=   356 NAE=    52 NBE=    52 NFC=    14 NFV=     0
 NROrb=    342 NOA=    38 NOB=    38 NVA=   304 NVB=   304

 **** Warning!!: The largest alpha MO coefficient is  0.60996839D+02

 Leave Link  801 at Fri Jan 23 15:10:07 2026, MaxMem=  2147483648 cpu:               1.0 elap:               0.1
 (Enter /data/home/wyx/g16/l914.exe)
 RHF ground state
 Two-electron integrals replicated using symmetry.
 MDV=  2147483648 DFT=T DoStab=F Mixed=T DoRPA=T DoScal=F NonHer=T
 NEqPCM:  Using non-equilibrium solvation (IEInf=1, Eps=   7.4257, EpsInf=   1.9740)
 Inv3:  Mode=1 IEnd=    13179648.
 Iteration    1 A*A^-1 deviation from unit magnitude is 3.33D-15 for    563.
 Iteration    1 A*A^-1 deviation from orthogonality  is 1.55D-15 for   1903    372.
 Iteration    1 A^-1*A deviation from unit magnitude is 3.33D-15 for    563.
 Iteration    1 A^-1*A deviation from orthogonality  is 2.40D-14 for   1391   1339.
 Making orbital integer symmetry assigments:
 Orbital symmetries:
       Occupied  (A) (A) (A) (A) (A) (A) (A) (A) (A) (A) (A) (A)
                 (A) (A) (A) (A) (A) (A) (A) (A) (A) (A) (A) (A)
                 (A) (A) (A) (A) (A) (A) (A) (A) (A) (A) (A) (A)
                 (A) (A) (A) (A) (A) (A) (A) (A) (A) (A) (A) (A)
                 (A) (A) (A) (A)
       Virtual   (A) (A) (A) (A) (A) (A) (A) (A) (A) (A) (A) (A)
                 (A) (A) (A) (A) (A) (A) (A) (A) (A) (A) (A) (A)
                 (A) (A) (A) (A) (A) (A) (A) (A) (A) (A) (A) (A)
                 (A) (A) (A) (A) (A) (A) (A) (A) (A) (A) (A) (A)
                 (A) (A) (A) (A) (A) (A) (A) (A) (A) (A) (A) (A)
                 (A) (A) (A) (A) (A) (A) (A) (A) (A) (A) (A) (A)
                 (A) (A) (A) (A) (A) (A) (A) (A) (A) (A) (A) (A)
                 (A) (A) (A) (A) (A) (A) (A) (A) (A) (A) (A) (A)
                 (A) (A) (A) (A) (A) (A) (A) (A) (A) (A) (A) (A)
                 (A) (A) (A) (A) (A) (A) (A) (A) (A) (A) (A) (A)
                 (A) (A) (A) (A) (A) (A) (A) (A) (A) (A) (A) (A)
                 (A) (A) (A) (A) (A) (A) (A) (A) (A) (A) (A) (A)
                 (A) (A) (A) (A) (A) (A) (A) (A) (A) (A) (A) (A)
                 (A) (A) (A) (A) (A) (A) (A) (A) (A) (A) (A) (A)
                 (A) (A) (A) (A) (A) (A) (A) (A) (A) (A) (A) (A)
                 (A) (A) (A) (A) (A) (A) (A) (A) (A) (A) (A) (A)
                 (A) (A) (A) (A) (A) (A) (A) (A) (A) (A) (A) (A)
                 (A) (A) (A) (A) (A) (A) (A) (A) (A) (A) (A) (A)
                 (A) (A) (A) (A) (A) (A) (A) (A) (A) (A) (A) (A)
                 (A) (A) (A) (A) (A) (A) (A) (A) (A) (A) (A) (A)
                 (A) (A) (A) (A) (A) (A) (A) (A) (A) (A) (A) (A)
                 (A) (A) (A) (A) (A) (A) (A) (A) (A) (A) (A) (A)
                 (A) (A) (A) (A) (A) (A) (A) (A) (A) (A) (A) (A)
                 (A) (A) (A) (A) (A) (A) (A) (A) (A) (A) (A) (A)
                 (A) (A) (A) (A) (A) (A) (A) (A) (A) (A) (A) (A)
                 (A) (A) (A) (A)
    24 initial guesses have been made.
 Convergence on wavefunction:    0.001000000000000
 Davidson Disk Diagonalization:  ConvIn= 1.00D-03 SkipCon=T Conv= 1.00D-03.
 Max sub-space:  2000 roots to seek:    24 dimension of matrix:        23104
 Iteration     1 Dimension    24 NMult     0 NNew     24
 CISAX will form    24 AO SS matrices at one time.
 NMat=    24 NSing=    24 JSym2X= 0.
 FoFJK:  IHMeth= 1 ICntrl=       0 DoSepK=T KAlg= 0 I1Cent=           0 FoldK=F
 IRaf=         1 NMat=      48 IRICut=       1 DoRegI=T DoRafI=F ISym2E= 0 IDoP0=3 IntGTp=3.
 New state      2 was old state      3
 New state      3 was old state      4
 New state      4 was old state      2
 New state      5 was old state      6
 New state      6 was old state      5
 Excitation Energies [eV] at current iteration:
 Root      1 :     3.394781740933198
 Root      2 :     4.128734256893410
 Root      3 :     4.347377211136394
 Root      4 :     5.243084080437913
 Root      5 :     5.854403069476617
 Root      6 :     6.130386868118136
 Root      7 :     6.403872931235938
 Root      8 :     6.664498929674244
 Root      9 :     6.767539388478282
 Root     10 :     6.938903064027748
 Root     11 :     7.017962165213701
 Root     12 :     7.254618152935752
 Root     13 :     7.265347713899780
 Root     14 :     7.301889148776277
 Root     15 :     7.599113243628814
 Root     16 :     7.903520012884043
 Root     17 :     7.972554502780446
 Root     18 :     8.072299387902783
 Root     19 :     8.094996163279744
 Root     20 :     8.299656402448278
 Root     21 :     8.347653843777508
 Root     22 :     8.470208112364094
 Root     23 :     8.595581215488437
 Root     24 :     8.755214594636122
 Iteration     2 Dimension    36 NMult    24 NNew     12
 CISAX will form    12 AO SS matrices at one time.
 NMat=    12 NSing=    12 JSym2X= 0.
 Root      1 not converged, maximum delta is    0.038130104444712
 Root      2 not converged, maximum delta is    0.076161416128459
 Root      3 not converged, maximum delta is    0.087175731233823
 Root      4 not converged, maximum delta is    0.238517329960277
 New state      5 was old state      6
 Root      5 not converged, maximum delta is    0.237918704722041
 New state      6 was old state      5
 Root      6 not converged, maximum delta is    0.085439396474855
 Excitation Energies [eV] at current iteration:
 Root      1 :     2.943132001743460   Change is   -0.451649739189739
 Root      2 :     3.917627641840515   Change is   -0.211106615052896
 Root      3 :     4.092757017383067   Change is   -0.254620193753326
 Root      4 :     4.904619319539859   Change is   -0.338464760898054
 Root      5 :     5.344256279835097   Change is   -0.786130588283039
 Root      6 :     5.751211594876505   Change is   -0.103191474600112
 Iteration     3 Dimension    48 NMult    36 NNew     12
 CISAX will form    12 AO SS matrices at one time.
 NMat=    12 NSing=    12 JSym2X= 0.
 Root      1 not converged, maximum delta is    0.007145637143404
 Root      2 not converged, maximum delta is    0.017482118533089
 Root      3 not converged, maximum delta is    0.013365318903516
 Root      4 not converged, maximum delta is    0.020380596269261
 Root      5 not converged, maximum delta is    0.021881164750021
 Root      6 not converged, maximum delta is    0.006932261531429
 Excitation Energies [eV] at current iteration:
 Root      1 :     2.926171864310438   Change is   -0.016960137433022
 Root      2 :     3.905204429750322   Change is   -0.012423212090193
 Root      3 :     4.078666991039917   Change is   -0.014090026343151
 Root      4 :     4.884890701730331   Change is   -0.019728617809528
 Root      5 :     5.314617648334765   Change is   -0.029638631500332
 Root      6 :     5.747023834917301   Change is   -0.004187759959204
 Iteration     4 Dimension    60 NMult    48 NNew     12
 CISAX will form    12 AO SS matrices at one time.
 NMat=    12 NSing=    12 JSym2X= 0.
 Root      1 not converged, maximum delta is    0.002508030429829
 Root      2 not converged, maximum delta is    0.001901829181202
 Root      3 not converged, maximum delta is    0.002460207720412
 Root      4 not converged, maximum delta is    0.002246346284813
 Root      5 not converged, maximum delta is    0.002925265206372
 Root      6 not converged, maximum delta is    0.001974118144901
 Excitation Energies [eV] at current iteration:
 Root      1 :     2.924910120576141   Change is   -0.001261743734297
 Root      2 :     3.904655804394319   Change is   -0.000548625356004
 Root      3 :     4.077669863499531   Change is   -0.000997127540386
 Root      4 :     4.882970540663015   Change is   -0.001920161067316
 Root      5 :     5.311406164279562   Change is   -0.003211484055202
 Root      6 :     5.746776783210908   Change is   -0.000247051706392
 Iteration     5 Dimension    72 NMult    60 NNew     12
 CISAX will form    12 AO SS matrices at one time.
 NMat=    12 NSing=    12 JSym2X= 0.
 Root      1 has converged.
 Root      2 has converged.
 Root      3 has converged.
 Root      4 has converged.
 Root      5 not converged, maximum delta is    0.001014299163772
 Root      6 has converged.
 Excitation Energies [eV] at current iteration:
 Root      1 :     2.924848692171830   Change is   -0.000061428404311
 Root      2 :     3.904612918431453   Change is   -0.000042885962866
 Root      3 :     4.077626174271926   Change is   -0.000043689227604
 Root      4 :     4.882835023949204   Change is   -0.000135516713812
 Root      5 :     5.311170529058898   Change is   -0.000235635220665
 Root      6 :     5.746756334966890   Change is   -0.000020448244019
 Iteration     6 Dimension    74 NMult    72 NNew      2
 CISAX will form     2 AO SS matrices at one time.
 NMat=     2 NSing=     2 JSym2X= 0.
 Root      1 has converged.
 Root      2 has converged.
 Root      3 has converged.
 Root      4 has converged.
 Root      5 has converged.
 Root      6 has converged.
 Excitation Energies [eV] at current iteration:
 Root      1 :     2.924848640804567   Change is   -0.000000051367263
 Root      2 :     3.904612875978863   Change is   -0.000000042452590
 Root      3 :     4.077626089067193   Change is   -0.000000085204733
 Root      4 :     4.882831691623744   Change is   -0.000003332325459
 Root      5 :     5.311149336307837   Change is   -0.000021192751060
 Root      6 :     5.746756131370719   Change is   -0.000000203596171
 Convergence achieved on expansion vectors.
 ***********************************************************************
 Excited states from <AA,BB:AA,BB> singles matrix:
 ***********************************************************************
 
 1PDM for each excited state written to RWF  633
 Ground to excited state transition densities written to RWF  633
 Ground to excited state transition electric dipole moments (Au):
       state          X           Y           Z        Dip. S.      Osc.
         1         1.4804     -0.1369     -0.0406      2.2119      0.1585
         2         0.0120     -0.0385      0.0334      0.0027      0.0003
         3        -0.0750      0.0700     -0.0214      0.0110      0.0011
         4         0.1530      1.2597     -0.0413      1.6120      0.1928
         5        -0.0846     -1.5652      0.0118      2.4572      0.3197
         6        -0.0099     -0.1869     -0.0535      0.0379      0.0053
 Ground to excited state transition velocity dipole moments (Au):
       state          X           Y           Z        Dip. S.      Osc.
         1        -0.1530      0.0109      0.0045      0.0236      0.1461
         2        -0.0018      0.0058     -0.0015      0.0000      0.0002
         3         0.0104     -0.0081     -0.0001      0.0002      0.0008
         4        -0.0328     -0.2137      0.0047      0.0468      0.1738
         5         0.0180      0.2980     -0.0030      0.0891      0.3044
         6         0.0035      0.0376      0.0312      0.0024      0.0076
 Ground to excited state transition magnetic dipole moments (Au):
       state          X           Y           Z
         1         0.0141     -0.0659      1.4850
         2         0.7734     -0.1156     -0.0546
         3         0.1881     -0.9553     -0.2231
         4        -0.0027      0.0268     -0.0045
         5         0.0941     -0.0949      0.2615
         6        -0.0381      0.0086     -0.0338
 Ground to excited state transition velocity quadrupole moments (Au):
       state          XX          YY          ZZ          XY          XZ          YZ
         1         0.1381     -0.0732     -0.0061      0.4499     -0.0253     -0.0177
         2         0.0261     -0.0085     -0.0109     -0.0051      0.0082      0.0686
         3        -0.0416      0.0088      0.0158     -0.0631      0.0579      0.0086
         4         1.1436     -0.2086     -0.0157     -0.0166     -0.0533      0.0187
         5        -0.6504      0.3132      0.0362      0.2013      0.0612     -0.0035
         6         0.0468      0.1185     -0.0952     -0.0109     -0.0217     -0.1042
 <0|del|b> * <b|rxdel|0> + <0|del|b> * <b|delr+rdel|0>
 Rotatory Strengths (R) in cgs (10**-40 erg-esu-cm/Gauss)
       state          XX          YY          ZZ    R(velocity)    E-M Angle
         1        26.9533     17.0386    -19.2889      8.2343       89.06
         2        -1.5474     -3.6170     -4.7210     -3.2951      114.06
         3        19.4695      4.8541     21.5800     15.3012       42.33
         4       -33.9157     -0.9185     12.5664     -7.4226      163.31
         5       -86.8050      2.6247    -14.9979    -33.0594      108.19
         6        -0.4303     -2.0241     -0.4378     -0.9641      109.97
 1/2[<0|r|b>*<b|rxdel|0> + (<0|rxdel|b>*<b|r|0>)*]
 Rotatory Strengths (R) in cgs (10**-40 erg-esu-cm/Gauss)
       state          XX          YY          ZZ     R(length)
         1       -14.7514     -6.3863     42.6228      7.1617
         2        -6.5543     -3.1507      1.2910     -2.8047
         3         9.9778     47.2830     -3.3838     17.9590
         4         0.2970    -23.8356     -0.1319     -7.8902
         5         5.6296   -105.0552     -2.1871    -33.8709
         6        -0.2662      1.1353     -1.2759     -0.1356
  1/2[<0|del|b>*<b|r|0> + (<0|r|b>*<b|del|0>)*] (Au)
       state          X           Y           Z        Dip. S.   Osc.(frdel)
         1        -0.2265     -0.0015     -0.0002      0.2282      0.1521
         2        -0.0000     -0.0002     -0.0001      0.0003      0.0002
         3        -0.0008     -0.0006      0.0000      0.0013      0.0009
         4        -0.0050     -0.2693     -0.0002      0.2745      0.1830
         5        -0.0015     -0.4664     -0.0000      0.4679      0.3119
         6        -0.0000     -0.0070     -0.0017      0.0087      0.0058

 Excitation energies and oscillator strengths:
 
 Excited State   1:      Singlet-A      2.9248 eV  423.90 nm  f=0.1585  <S**2>=0.000
      52 -> 53         0.70218
 This state for optimization and/or second-order correction.
 Total Energy, E(TD-HF/TD-DFT) =  -633.210885315    
 Copying the excited state density for this state as the 1-particle RhoCI density.
 
 Excited State   2:      Singlet-A      3.9046 eV  317.53 nm  f=0.0003  <S**2>=0.000
      50 -> 54         0.15920
      51 -> 53         0.59132
      51 -> 54         0.31301
 
 Excited State   3:      Singlet-A      4.0776 eV  304.06 nm  f=0.0011  <S**2>=0.000
      49 -> 53         0.29124
      49 -> 54        -0.16021
      50 -> 53         0.52019
      50 -> 54        -0.23536
      50 -> 58         0.10854
      51 -> 54         0.19086
 
 Excited State   4:      Singlet-A      4.8828 eV  253.92 nm  f=0.1928  <S**2>=0.000
      52 -> 54         0.69935
 
 Excited State   5:      Singlet-A      5.3111 eV  233.44 nm  f=0.3197  <S**2>=0.000
      49 -> 53         0.59828
      50 -> 53        -0.33793
 
 Excited State   6:      Singlet-A      5.7468 eV  215.75 nm  f=0.0053  <S**2>=0.000
      52 -> 55         0.65163
      52 -> 56         0.15479
      52 -> 57         0.13371
      52 -> 62        -0.10266
 SavETr:  write IOETrn=   770 NScale= 10 NData=  16 NLR=1 NState=    6 LETran=     118.
 Leave Link  914 at Fri Jan 23 15:12:16 2026, MaxMem=  2147483648 cpu:            2054.1 elap:             129.1
 (Enter /data/home/wyx/g16/l601.exe)
 Copying SCF densities to generalized density rwf, IOpCl= 0 IROHF=0.

 **********************************************************************

            Population analysis using the SCF density.

 **********************************************************************

 Orbital symmetries:
       Occupied  (A) (A) (A) (A) (A) (A) (A) (A) (A) (A) (A) (A)
                 (A) (A) (A) (A) (A) (A) (A) (A) (A) (A) (A) (A)
                 (A) (A) (A) (A) (A) (A) (A) (A) (A) (A) (A) (A)
                 (A) (A) (A) (A) (A) (A) (A) (A) (A) (A) (A) (A)
                 (A) (A) (A) (A)
       Virtual   (A) (A) (A) (A) (A) (A) (A) (A) (A) (A) (A) (A)
                 (A) (A) (A) (A) (A) (A) (A) (A) (A) (A) (A) (A)
                 (A) (A) (A) (A) (A) (A) (A) (A) (A) (A) (A) (A)
                 (A) (A) (A) (A) (A) (A) (A) (A) (A) (A) (A) (A)
                 (A) (A) (A) (A) (A) (A) (A) (A) (A) (A) (A) (A)
                 (A) (A) (A) (A) (A) (A) (A) (A) (A) (A) (A) (A)
                 (A) (A) (A) (A) (A) (A) (A) (A) (A) (A) (A) (A)
                 (A) (A) (A) (A) (A) (A) (A) (A) (A) (A) (A) (A)
                 (A) (A) (A) (A) (A) (A) (A) (A) (A) (A) (A) (A)
                 (A) (A) (A) (A) (A) (A) (A) (A) (A) (A) (A) (A)
                 (A) (A) (A) (A) (A) (A) (A) (A) (A) (A) (A) (A)
                 (A) (A) (A) (A) (A) (A) (A) (A) (A) (A) (A) (A)
                 (A) (A) (A) (A) (A) (A) (A) (A) (A) (A) (A) (A)
                 (A) (A) (A) (A) (A) (A) (A) (A) (A) (A) (A) (A)
                 (A) (A) (A) (A) (A) (A) (A) (A) (A) (A) (A) (A)
                 (A) (A) (A) (A) (A) (A) (A) (A) (A) (A) (A) (A)
                 (A) (A) (A) (A) (A) (A) (A) (A) (A) (A) (A) (A)
                 (A) (A) (A) (A) (A) (A) (A) (A) (A) (A) (A) (A)
                 (A) (A) (A) (A) (A) (A) (A) (A) (A) (A) (A) (A)
                 (A) (A) (A) (A) (A) (A) (A) (A) (A) (A) (A) (A)
                 (A) (A) (A) (A) (A) (A) (A) (A) (A) (A) (A) (A)
                 (A) (A) (A) (A) (A) (A) (A) (A) (A) (A) (A) (A)
                 (A) (A) (A) (A) (A) (A) (A) (A) (A) (A) (A) (A)
                 (A) (A) (A) (A) (A) (A) (A) (A) (A) (A) (A) (A)
                 (A) (A) (A) (A) (A) (A) (A) (A) (A) (A) (A) (A)
                 (A) (A) (A) (A)
 The electronic state is 1-A.
 Alpha  occ. eigenvalues --  -19.17798 -19.16860 -14.44928 -10.33361 -10.33007
 Alpha  occ. eigenvalues --  -10.32778 -10.32373 -10.26336 -10.25492 -10.25186
 Alpha  occ. eigenvalues --  -10.24758 -10.24424 -10.24222 -10.23670  -1.11289
 Alpha  occ. eigenvalues --   -1.10666  -1.08610  -0.91455  -0.90546  -0.83953
 Alpha  occ. eigenvalues --   -0.82690  -0.81673  -0.78512  -0.73819  -0.72303
 Alpha  occ. eigenvalues --   -0.68714  -0.61546  -0.58301  -0.57066  -0.55152
 Alpha  occ. eigenvalues --   -0.54659  -0.53998  -0.52471  -0.51751  -0.50870
 Alpha  occ. eigenvalues --   -0.49693  -0.49505  -0.49250  -0.48707  -0.47994
 Alpha  occ. eigenvalues --   -0.47312  -0.45302  -0.45096  -0.44078  -0.43341
 Alpha  occ. eigenvalues --   -0.42107  -0.42066  -0.41430  -0.32564  -0.32154
 Alpha  occ. eigenvalues --   -0.31104  -0.24995
 Alpha virt. eigenvalues --   -0.03436   0.02519   0.06203   0.08001   0.08363
 Alpha virt. eigenvalues --    0.09674   0.10702   0.11416   0.12484   0.13349
 Alpha virt. eigenvalues --    0.13819   0.14807   0.15531   0.16384   0.16932
 Alpha virt. eigenvalues --    0.17413   0.17809   0.18032   0.18501   0.19234
 Alpha virt. eigenvalues --    0.19800   0.21923   0.22660   0.23381   0.23823
 Alpha virt. eigenvalues --    0.24033   0.24689   0.25609   0.26320   0.26699
 Alpha virt. eigenvalues --    0.27391   0.28035   0.28420   0.29562   0.30156
 Alpha virt. eigenvalues --    0.31529   0.31861   0.32249   0.33361   0.34052
 Alpha virt. eigenvalues --    0.34650   0.35694   0.36685   0.37515   0.38522
 Alpha virt. eigenvalues --    0.39621   0.40901   0.41330   0.41760   0.42420
 Alpha virt. eigenvalues --    0.43948   0.44841   0.45521   0.46167   0.46482
 Alpha virt. eigenvalues --    0.47265   0.47666   0.47822   0.48457   0.49146
 Alpha virt. eigenvalues --    0.49628   0.50517   0.51216   0.51286   0.51547
 Alpha virt. eigenvalues --    0.52341   0.52624   0.53234   0.53606   0.54177
 Alpha virt. eigenvalues --    0.54278   0.55202   0.55770   0.56585   0.58141
 Alpha virt. eigenvalues --    0.58376   0.59976   0.61040   0.61845   0.63111
 Alpha virt. eigenvalues --    0.64165   0.64919   0.66290   0.66938   0.67468
 Alpha virt. eigenvalues --    0.68723   0.69182   0.70507   0.70862   0.71974
 Alpha virt. eigenvalues --    0.72888   0.74812   0.75182   0.76074   0.77541
 Alpha virt. eigenvalues --    0.79031   0.80736   0.83457   0.86774   0.87515
 Alpha virt. eigenvalues --    0.91790   0.95961   1.02481   1.04340   1.21780
 Alpha virt. eigenvalues --    1.24163   1.27315   1.28173   1.28849   1.30156
 Alpha virt. eigenvalues --    1.31949   1.33165   1.34538   1.35115   1.36303
 Alpha virt. eigenvalues --    1.36835   1.37813   1.38406   1.38811   1.39457
 Alpha virt. eigenvalues --    1.39880   1.40077   1.40688   1.41320   1.42098
 Alpha virt. eigenvalues --    1.43226   1.43303   1.44183   1.45531   1.47178
 Alpha virt. eigenvalues --    1.48081   1.49402   1.49553   1.50170   1.50759
 Alpha virt. eigenvalues --    1.51347   1.52091   1.52973   1.55626   1.58881
 Alpha virt. eigenvalues --    1.59677   1.59923   1.60964   1.61677   1.62150
 Alpha virt. eigenvalues --    1.62569   1.62890   1.63339   1.64458   1.65637
 Alpha virt. eigenvalues --    1.66267   1.66954   1.67482   1.68000   1.68688
 Alpha virt. eigenvalues --    1.69026   1.69710   1.70243   1.70956   1.72464
 Alpha virt. eigenvalues --    1.74148   1.74593   1.75437   1.76449   1.78475
 Alpha virt. eigenvalues --    1.81496   1.82874   1.83721   1.85570   1.86438
 Alpha virt. eigenvalues --    1.86476   1.87863   1.88620   1.89116   1.90148
 Alpha virt. eigenvalues --    1.91261   1.94308   1.94980   1.98913   1.99715
 Alpha virt. eigenvalues --    2.01574   2.03784   2.05738   2.06792   2.09340
 Alpha virt. eigenvalues --    2.09945   2.11385   2.15748   2.17420   2.19526
 Alpha virt. eigenvalues --    2.20467   2.21155   2.22085   2.22903   2.26343
 Alpha virt. eigenvalues --    2.26809   2.27337   2.29142   2.30942   2.32164
 Alpha virt. eigenvalues --    2.33399   2.34343   2.36842   2.37678   2.39039
 Alpha virt. eigenvalues --    2.39391   2.40174   2.41318   2.42688   2.45005
 Alpha virt. eigenvalues --    2.45514   2.47305   2.48732   2.49406   2.51203
 Alpha virt. eigenvalues --    2.52392   2.53913   2.54449   2.56308   2.57264
 Alpha virt. eigenvalues --    2.58625   2.60835   2.61769   2.62297   2.63333
 Alpha virt. eigenvalues --    2.64668   2.65304   2.66514   2.67315   2.68359
 Alpha virt. eigenvalues --    2.71471   2.71815   2.73918   2.74534   2.75394
 Alpha virt. eigenvalues --    2.76448   2.77185   2.77695   2.78223   2.78801
 Alpha virt. eigenvalues --    2.80680   2.81386   2.83165   2.83702   2.85080
 Alpha virt. eigenvalues --    2.85446   2.86299   2.88701   2.88964   2.92090
 Alpha virt. eigenvalues --    2.97193   2.98496   3.01009   3.06995   3.10584
 Alpha virt. eigenvalues --    3.12138   3.13800   3.18125   3.19289   3.21395
 Alpha virt. eigenvalues --    3.22256   3.23209   3.25016   3.25942   3.26344
 Alpha virt. eigenvalues --    3.29268   3.30279   3.32095   3.34652   3.36504
 Alpha virt. eigenvalues --    3.38235   3.38641   3.39133   3.39365   3.41441
 Alpha virt. eigenvalues --    3.41887   3.43692   3.44701   3.47576   3.48162
 Alpha virt. eigenvalues --    3.49757   3.50223   3.56023   3.58298   3.59799
 Alpha virt. eigenvalues --    3.61357   3.90953   4.00734   4.32931   4.35988
 Alpha virt. eigenvalues --   21.68417  21.80799  22.07758  22.10031  22.11392
 Alpha virt. eigenvalues --   22.14560  22.14920  22.17354  22.18887  22.24974
 Alpha virt. eigenvalues --   22.27013  31.91164  43.64075  43.66898
          Condensed to atoms (all electrons):
               1          2          3          4          5          6
     1  O    7.930541   0.000000  -0.000164   0.000019   0.019597   0.008055
     2  O    0.000000   7.982960   0.000369   0.000011  -0.192356   0.001417
     3  N   -0.000164   0.000369   6.359522   0.368257  -0.121095   0.329564
     4  H    0.000019   0.000011   0.368257   0.413431   0.015982  -0.045546
     5  C    0.019597  -0.192356  -0.121095   0.015982   7.205091  -0.080277
     6  C    0.008055   0.001417   0.329564  -0.045546  -0.080277   5.550979
     7  C   -0.000032  -0.050787   0.394357  -0.036423   0.480542  -0.134371
     8  C   -0.000799   0.697580   0.004168  -0.000913  -0.373018   0.035090
     9  C    0.000340   0.028472   0.016354   0.000233  -0.752371  -0.038911
    10  H    0.007692   0.000017  -0.001112   0.000025  -0.106862   0.028839
    11  H    0.008913   0.000108   0.003247   0.000040  -0.078449  -0.018634
    12  C   -0.232135  -0.003372  -0.088001   0.014333   0.195669  -0.043366
    13  C    0.713584  -0.000013   0.001638   0.000586   0.085764   0.109759
    14  C   -0.000007  -0.005978  -0.032466  -0.010556  -0.086748   0.010204
    15  H   -0.000000   0.004105   0.004490   0.002392   0.022573   0.006319
    16  H    0.000000   0.002305  -0.000653   0.000802  -0.005413  -0.001390
    17  H   -0.000000   0.003875  -0.001807   0.000906  -0.010436  -0.001154
    18  C    0.000326  -0.098214  -0.000479   0.000021  -0.244657  -0.000132
    19  H    0.000001   0.007062   0.000008  -0.000001   0.023900   0.000012
    20  H    0.000199   0.004351   0.000105   0.000001   0.045488  -0.001249
    21  H   -0.000010   0.000660   0.000011  -0.000001   0.001791   0.000176
    22  C   -0.105537   0.000000  -0.000246   0.000117   0.003597  -0.026146
    23  H    0.001412   0.000000   0.000029  -0.000010  -0.000016   0.007678
    24  H    0.005154  -0.000000   0.000235  -0.000057  -0.000753  -0.023428
    25  H    0.006412   0.000000   0.000019  -0.000002  -0.000121  -0.000803
    26  C    0.000702   0.000011  -0.025292  -0.006758   0.000641   0.200621
    27  H   -0.000054  -0.000000  -0.002334   0.000511   0.000359  -0.031754
    28  H   -0.000213  -0.000000   0.000723   0.000694   0.000122  -0.049366
    29  H    0.000022   0.000000   0.002051   0.002290  -0.000308  -0.047892
               7          8          9         10         11         12
     1  O   -0.000032  -0.000799   0.000340   0.007692   0.008913  -0.232135
     2  O   -0.050787   0.697580   0.028472   0.000017   0.000108  -0.003372
     3  N    0.394357   0.004168   0.016354  -0.001112   0.003247  -0.088001
     4  H   -0.036423  -0.000913   0.000233   0.000025   0.000040   0.014333
     5  C    0.480542  -0.373018  -0.752371  -0.106862  -0.078449   0.195669
     6  C   -0.134371   0.035090  -0.038911   0.028839  -0.018634  -0.043366
     7  C    5.426511  -0.248044  -0.234177   0.014672  -0.006060   0.032045
     8  C   -0.248044   5.433791   0.237067  -0.009879   0.000237  -0.056442
     9  C   -0.234177   0.237067   6.441646   0.524075   0.444269  -0.156196
    10  H    0.014672  -0.009879   0.524075   0.545154  -0.053283  -0.106611
    11  H   -0.006060   0.000237   0.444269  -0.053283   0.583432  -0.017048
    12  C    0.032045  -0.056442  -0.156196  -0.106611  -0.017048   7.379551
    13  C    0.021253  -0.010274  -0.227073  -0.000433  -0.009630  -0.524717
    14  C    0.296136  -0.031077   0.003667   0.000362  -0.000582   0.001390
    15  H   -0.087148   0.005322   0.000984  -0.000003   0.000036  -0.001735
    16  H   -0.023253  -0.006453  -0.000278  -0.000054   0.000166   0.000274
    17  H   -0.018785  -0.001532   0.001008   0.000064  -0.000059   0.000196
    18  C   -0.002328   0.326876  -0.000932   0.007262  -0.015246   0.000439
    19  H    0.000154  -0.053256  -0.002498   0.000568   0.000170  -0.000141
    20  H    0.004517  -0.073484  -0.007093  -0.008037   0.003220   0.007022
    21  H   -0.000461  -0.024375  -0.009701  -0.000257   0.000681  -0.002259
    22  C    0.000136  -0.000055   0.010871  -0.001863   0.003936  -0.245472
    23  H   -0.000009   0.000001  -0.002017  -0.000136   0.000180  -0.011177
    24  H   -0.000026   0.000013   0.002326   0.000138  -0.000252   0.065550
    25  H    0.000012   0.000001   0.000275   0.000000  -0.000120   0.018579
    26  C    0.002510   0.000880   0.021035   0.000196  -0.000713  -0.086179
    27  H   -0.000810  -0.000015  -0.000555   0.000036  -0.000004  -0.017134
    28  H   -0.000772   0.000001   0.000072   0.000013  -0.000093  -0.007424
    29  H    0.002936  -0.000001  -0.000472  -0.000015   0.000079   0.023014
              13         14         15         16         17         18
     1  O    0.713584  -0.000007  -0.000000   0.000000  -0.000000   0.000326
     2  O   -0.000013  -0.005978   0.004105   0.002305   0.003875  -0.098214
     3  N    0.001638  -0.032466   0.004490  -0.000653  -0.001807  -0.000479
     4  H    0.000586  -0.010556   0.002392   0.000802   0.000906   0.000021
     5  C    0.085764  -0.086748   0.022573  -0.005413  -0.010436  -0.244657
     6  C    0.109759   0.010204   0.006319  -0.001390  -0.001154  -0.000132
     7  C    0.021253   0.296136  -0.087148  -0.023253  -0.018785  -0.002328
     8  C   -0.010274  -0.031077   0.005322  -0.006453  -0.001532   0.326876
     9  C   -0.227073   0.003667   0.000984  -0.000278   0.001008  -0.000932
    10  H   -0.000433   0.000362  -0.000003  -0.000054   0.000064   0.007262
    11  H   -0.009630  -0.000582   0.000036   0.000166  -0.000059  -0.015246
    12  C   -0.524717   0.001390  -0.001735   0.000274   0.000196   0.000439
    13  C    5.614523   0.000149  -0.000044  -0.000005  -0.000006   0.001574
    14  C    0.000149   5.021090   0.390175   0.413808   0.408200   0.000832
    15  H   -0.000044   0.390175   0.581798  -0.027288  -0.025629   0.000218
    16  H   -0.000005   0.413808  -0.027288   0.508201  -0.025595  -0.000165
    17  H   -0.000006   0.408200  -0.025629  -0.025595   0.503723   0.000138
    18  C    0.001574   0.000832   0.000218  -0.000165   0.000138   5.298347
    19  H   -0.000012   0.000028  -0.000004   0.000039  -0.000038   0.397412
    20  H    0.001028   0.000114  -0.000014  -0.000027  -0.000002   0.379758
    21  H   -0.000160  -0.000178  -0.000005   0.000009  -0.000008   0.401386
    22  C    0.268211  -0.000005   0.000002  -0.000000  -0.000000   0.000030
    23  H   -0.020913  -0.000001   0.000000  -0.000000   0.000000  -0.000001
    24  H   -0.101359   0.000003   0.000000  -0.000000   0.000000   0.000000
    25  H   -0.032407   0.000000   0.000000   0.000000  -0.000000  -0.000001
    26  C   -0.052916   0.000383   0.000333  -0.000002  -0.000053   0.000003
    27  H    0.006725  -0.000086  -0.000007   0.000003  -0.000004  -0.000000
    28  H   -0.001462   0.000039  -0.000006  -0.000002   0.000001   0.000000
    29  H   -0.001496  -0.000087   0.000096  -0.000001  -0.000001  -0.000000
              19         20         21         22         23         24
     1  O    0.000001   0.000199  -0.000010  -0.105537   0.001412   0.005154
     2  O    0.007062   0.004351   0.000660   0.000000   0.000000  -0.000000
     3  N    0.000008   0.000105   0.000011  -0.000246   0.000029   0.000235
     4  H   -0.000001   0.000001  -0.000001   0.000117  -0.000010  -0.000057
     5  C    0.023900   0.045488   0.001791   0.003597  -0.000016  -0.000753
     6  C    0.000012  -0.001249   0.000176  -0.026146   0.007678  -0.023428
     7  C    0.000154   0.004517  -0.000461   0.000136  -0.000009  -0.000026
     8  C   -0.053256  -0.073484  -0.024375  -0.000055   0.000001   0.000013
     9  C   -0.002498  -0.007093  -0.009701   0.010871  -0.002017   0.002326
    10  H    0.000568  -0.008037  -0.000257  -0.001863  -0.000136   0.000138
    11  H    0.000170   0.003220   0.000681   0.003936   0.000180  -0.000252
    12  C   -0.000141   0.007022  -0.002259  -0.245472  -0.011177   0.065550
    13  C   -0.000012   0.001028  -0.000160   0.268211  -0.020913  -0.101359
    14  C    0.000028   0.000114  -0.000178  -0.000005  -0.000001   0.000003
    15  H   -0.000004  -0.000014  -0.000005   0.000002   0.000000   0.000000
    16  H    0.000039  -0.000027   0.000009  -0.000000  -0.000000  -0.000000
    17  H   -0.000038  -0.000002  -0.000008  -0.000000   0.000000   0.000000
    18  C    0.397412   0.379758   0.401386   0.000030  -0.000001   0.000000
    19  H    0.509666  -0.025357  -0.010195  -0.000000   0.000000   0.000000
    20  H   -0.025357   0.540396  -0.022602   0.000039  -0.000000  -0.000001
    21  H   -0.010195  -0.022602   0.490859  -0.000011   0.000000   0.000000
    22  C   -0.000000   0.000039  -0.000011   5.439420   0.399302   0.396092
    23  H    0.000000  -0.000000   0.000000   0.399302   0.496278  -0.028024
    24  H    0.000000  -0.000001   0.000000   0.396092  -0.028024   0.550683
    25  H   -0.000000  -0.000001   0.000000   0.380829  -0.008099  -0.022400
    26  C    0.000000  -0.000017   0.000002  -0.034729  -0.009267   0.016132
    27  H    0.000000   0.000000  -0.000000  -0.010597   0.000799  -0.001918
    28  H   -0.000000  -0.000000   0.000000   0.002997   0.000265  -0.006603
    29  H    0.000000   0.000000  -0.000000   0.002124   0.000154   0.000561
              25         26         27         28         29
     1  O    0.006412   0.000702  -0.000054  -0.000213   0.000022
     2  O    0.000000   0.000011  -0.000000  -0.000000   0.000000
     3  N    0.000019  -0.025292  -0.002334   0.000723   0.002051
     4  H   -0.000002  -0.006758   0.000511   0.000694   0.002290
     5  C   -0.000121   0.000641   0.000359   0.000122  -0.000308
     6  C   -0.000803   0.200621  -0.031754  -0.049366  -0.047892
     7  C    0.000012   0.002510  -0.000810  -0.000772   0.002936
     8  C    0.000001   0.000880  -0.000015   0.000001  -0.000001
     9  C    0.000275   0.021035  -0.000555   0.000072  -0.000472
    10  H    0.000000   0.000196   0.000036   0.000013  -0.000015
    11  H   -0.000120  -0.000713  -0.000004  -0.000093   0.000079
    12  C    0.018579  -0.086179  -0.017134  -0.007424   0.023014
    13  C   -0.032407  -0.052916   0.006725  -0.001462  -0.001496
    14  C    0.000000   0.000383  -0.000086   0.000039  -0.000087
    15  H    0.000000   0.000333  -0.000007  -0.000006   0.000096
    16  H    0.000000  -0.000002   0.000003  -0.000002  -0.000001
    17  H   -0.000000  -0.000053  -0.000004   0.000001  -0.000001
    18  C   -0.000001   0.000003  -0.000000   0.000000  -0.000000
    19  H   -0.000000   0.000000   0.000000  -0.000000   0.000000
    20  H   -0.000001  -0.000017   0.000000  -0.000000   0.000000
    21  H    0.000000   0.000002  -0.000000   0.000000  -0.000000
    22  C    0.380829  -0.034729  -0.010597   0.002997   0.002124
    23  H   -0.008099  -0.009267   0.000799   0.000265   0.000154
    24  H   -0.022400   0.016132  -0.001918  -0.006603   0.000561
    25  H    0.493448   0.001992   0.000128   0.000508  -0.000034
    26  C    0.001992   5.226911   0.425246   0.433926   0.386132
    27  H    0.000128   0.425246   0.481668  -0.028432  -0.016516
    28  H    0.000508   0.433926  -0.028432   0.503440  -0.024166
    29  H   -0.000034   0.386132  -0.016516  -0.024166   0.518253
 Mulliken charges:
               1
     1  O   -0.364019
     2  O   -0.382585
     3  N   -0.211499
     4  H    0.279614
     5  C   -0.048238
     6  C    0.255707
     7  C    0.167703
     8  C    0.148589
     9  C   -0.300422
    10  H    0.159433
    11  H    0.151459
    12  C   -0.138655
    13  C    0.158125
    14  C   -0.378810
    15  H    0.123039
    16  H    0.164970
    17  H    0.166999
    18  C   -0.452469
    19  H    0.152484
    20  H    0.151645
    21  H    0.174646
    22  C   -0.483040
    23  H    0.173572
    24  H    0.147934
    25  H    0.161784
    26  C   -0.501728
    27  H    0.194743
    28  H    0.175739
    29  H    0.153279
 Sum of Mulliken charges =  -0.00000
 Mulliken charges with hydrogens summed into heavy atoms:
               1
     1  O   -0.364019
     2  O   -0.382585
     3  N    0.068115
     5  C   -0.048238
     6  C    0.255707
     7  C    0.167703
     8  C    0.148589
     9  C    0.010470
    12  C   -0.138655
    13  C    0.158125
    14  C    0.076198
    18  C    0.026306
    22  C    0.000250
    26  C    0.022033
 Electronic spatial extent (au):  <R**2>=           3211.3580
 Charge=             -0.0000 electrons
 Dipole moment (field-independent basis, Debye):
    X=              4.0939    Y=              7.6694    Z=              0.2686  Tot=              8.6978
 Quadrupole moment (field-independent basis, Debye-Ang):
   XX=            -98.4556   YY=            -78.1152   ZZ=            -84.9334
   XY=             12.1707   XZ=              3.6086   YZ=             -2.4343
 Traceless Quadrupole moment (field-independent basis, Debye-Ang):
   XX=            -11.2875   YY=              9.0529   ZZ=              2.2347
   XY=             12.1707   XZ=              3.6086   YZ=             -2.4343
 Octapole moment (field-independent basis, Debye-Ang**2):
  XXX=            112.2658  YYY=             65.2522  ZZZ=              0.9894  XYY=            -34.6047
  XXY=             32.7438  XXZ=             -3.2400  XZZ=              0.1618  YZZ=             -1.1780
  YYZ=              5.0039  XYZ=             -5.2036
 Hexadecapole moment (field-independent basis, Debye-Ang**3):
 XXXX=          -3078.4858 YYYY=          -1300.2000 ZZZZ=           -140.4605 XXXY=             30.4933
 XXXZ=             37.9684 YYYX=             87.1612 YYYZ=            -19.0118 ZZZX=             -3.8168
 ZZZY=              1.3534 XXYY=           -692.4946 XXZZ=           -478.6618 YYZZ=           -246.1622
 XXYZ=            -11.1799 YYXZ=             10.4946 ZZXY=              0.3524
 N-N= 8.984417258700D+02 E-N=-3.272770648740D+03  KE= 6.305865497856D+02
 Leave Link  601 at Fri Jan 23 15:12:17 2026, MaxMem=  2147483648 cpu:               0.7 elap:               0.1
 (Enter /data/home/wyx/g16/l9999.exe)
 Electronic transition elements 
                 1             2             3             4             5 
      1  -0.633211D+03 -0.633175D+03 -0.633169D+03 -0.633139D+03 -0.633123D+03
      2   0.143605D+01  0.203407D-01 -0.911596D-01 -0.272226D+00  0.441455D+00
      3   0.368239D+00 -0.321235D-01  0.406389D-01  0.123772D+01 -0.150257D+01
      4   0.118741D+00  0.360392D-01 -0.319727D-01 -0.771603D-01  0.675980D-01
      5  -0.147369D+00 -0.348211D-02  0.124302D-01  0.400740D-01 -0.821906D-01
      6  -0.411537D-01  0.484656D-02 -0.415912D-02 -0.212305D+00  0.286658D+00
      7  -0.118716D-01 -0.194650D-02  0.131322D-02  0.101155D-01 -0.134248D-01
      8  -0.130367D+00  0.768687D+00  0.519540D+00 -0.109881D-01  0.906208D-01
      9  -0.513120D-01  0.150712D+00 -0.837418D+00  0.242603D-01 -0.566996D-01
     10   0.147992D+01  0.306368D-01 -0.162811D+00 -0.587791D-02  0.273530D+00
     11  -0.164118D+00  0.283224D-01 -0.735873D-02  0.100172D+01 -0.673417D+00
     12   0.235162D+00 -0.724718D-02 -0.365523D-01 -0.665072D-01  0.331980D+00
     13  -0.122353D-01 -0.144119D-01  0.269396D-01 -0.159830D-01  0.404872D-01
     14   0.415485D+00 -0.590071D-03 -0.672695D-01  0.412240D+00 -0.149670D+00
     15  -0.372797D-01 -0.108933D-01  0.493156D-01  0.559511D-01 -0.201362D-01
     16   0.202539D-01  0.677117D-01  0.204343D-01  0.461680D-01 -0.603445D-03
                 6 
      1  -0.633107D+03
      2   0.590338D-01
      3  -0.179579D+00
      4  -0.464318D-01
      5  -0.127640D-01
      6   0.367242D-01
      7   0.298461D-01
      8  -0.347520D-01
      9  -0.484296D-02
     10  -0.378429D-01
     11   0.566308D-01
     12   0.102675D+00
     13  -0.891018D-01
     14  -0.190422D-01
     15   0.316668D-01
     16  -0.109039D+00
 1\1\GINC-CN012\SP\RCAM-B3LYP TD-FC\TZVP\C11H15N1O2\WYX\23-Jan-2026\0\\
 #p CAM-B3LYP TZVP em=gd3bj td(nstates=6,root=1) scrf=(Solvent=TetraHyd
 roFuran)\\Title Card Required\\0,1\O,0,2.840157,-1.574847,0.017213\O,0
 ,-3.430102,-1.653909,-0.180776\N,0,-0.670481,1.518778,-0.152961\H,0,-0
 .982798,2.480069,-0.201647\C,0,-1.250212,-0.763812,-0.197036\C,0,0.675
 016,1.341581,-0.008681\C,0,-1.643876,0.584691,-0.228405\C,0,-2.209603,
 -1.850015,-0.197822\C,0,0.189724,-1.077691,-0.160822\H,0,0.395095,-1.8
 75606,0.563843\H,0,0.480365,-1.578977,-1.104718\C,0,1.146704,0.026227,
 0.05146\C,0,2.518601,-0.403432,0.259783\C,0,-3.033737,1.108055,-0.3585
 79\H,0,-3.028151,2.195914,-0.431924\H,0,-3.525023,0.702609,-1.240708\H
 ,0,-3.64683,0.820441,0.492948\C,0,-1.703276,-3.273564,-0.183677\H,0,-2
 .501282,-3.92619,-0.527291\H,0,-0.823489,-3.429265,-0.803787\H,0,-1.44
 2388,-3.568728,0.835027\C,0,3.572536,0.524789,0.814524\H,0,4.076737,1.
 061124,0.007644\H,0,3.175876,1.256905,1.513154\H,0,4.316988,-0.087046,
 1.319777\C,0,1.470748,2.60481,0.024276\H,0,1.751247,2.896,1.03832\H,0,
 2.384308,2.512972,-0.557335\H,0,0.897148,3.428116,-0.401805\\Version=E
 S64L-G16RevA.03\State=1-A\HF=-633.3183715\RMSD=6.060e-09\PG=C01 [X(C11
 H15N1O2)]\\@


 SUCCESS IS NEVER CERTAIN,
 FAILURE IS NEVER FINAL.
 Job cpu time:       0 days  0 hours 49 minutes  7.6 seconds.
 Elapsed time:       0 days  0 hours  3 minutes  5.6 seconds.
 File lengths (MBytes):  RWF=    829 Int=      0 D2E=      0 Chk=     34 Scr=      1
 Normal termination of Gaussian 16 at Fri Jan 23 15:12:20 2026.
