 Entering Gaussian System, Link 0=g16
 Input=DDL-S1-cLR-gs-11.gjf
 Output=DDL-S1-cLR-gs-11.log
 Initial command:
 /data/home/wyx/g16/l1.exe "/scr/tmp/wyx/13106/Gau-1987459.inp" -scrdir="/scr/tmp/wyx/13106/"
 Entering Link 1 = /data/home/wyx/g16/l1.exe PID=   1987460.
  
 Copyright (c) 1988,1990,1992,1993,1995,1998,2003,2009,2016,
            Gaussian, Inc.  All Rights Reserved.
  
 This is part of the Gaussian(R) 16 program.  It is based on
 the Gaussian(R) 09 system (copyright 2009, Gaussian, Inc.),
 the Gaussian(R) 03 system (copyright 2003, Gaussian, Inc.),
 the Gaussian(R) 98 system (copyright 1998, Gaussian, Inc.),
 the Gaussian(R) 94 system (copyright 1995, Gaussian, Inc.),
 the Gaussian 92(TM) system (copyright 1992, Gaussian, Inc.),
 the Gaussian 90(TM) system (copyright 1990, Gaussian, Inc.),
 the Gaussian 88(TM) system (copyright 1988, Gaussian, Inc.),
 the Gaussian 86(TM) system (copyright 1986, Carnegie Mellon
 University), and the Gaussian 82(TM) system (copyright 1983,
 Carnegie Mellon University). Gaussian is a federally registered
 trademark of Gaussian, Inc.
  
 This software contains proprietary and confidential information,
 including trade secrets, belonging to Gaussian, Inc.
  
 This software is provided under written license and may be
 used, copied, transmitted, or stored only in accord with that
 written license.
  
 The following legend is applicable only to US Government
 contracts under FAR:
  
                    RESTRICTED RIGHTS LEGEND
  
 Use, reproduction and disclosure by the US Government is
 subject to restrictions as set forth in subparagraphs (a)
 and (c) of the Commercial Computer Software - Restricted
 Rights clause in FAR 52.227-19.
  
 Gaussian, Inc.
 340 Quinnipiac St., Bldg. 40, Wallingford CT 06492
  
  
 ---------------------------------------------------------------
 Warning -- This program may not be used in any manner that
 competes with the business of Gaussian, Inc. or will provide
 assistance to any competitor of Gaussian, Inc.  The licensee
 of this program is prohibited from giving any competitor of
 Gaussian, Inc. access to this program.  By using this program,
 the user acknowledges that Gaussian, Inc. is engaged in the
 business of creating and licensing software in the field of
 computational chemistry and represents and warrants to the
 licensee that it is not a competitor of Gaussian, Inc. and that
 it will not use this program in any manner prohibited above.
 ---------------------------------------------------------------
  

 Cite this work as:
 Gaussian 16, Revision A.03,
 M. J. Frisch, G. W. Trucks, H. B. Schlegel, G. E. Scuseria, 
 M. A. Robb, J. R. Cheeseman, G. Scalmani, V. Barone, 
 G. A. Petersson, H. Nakatsuji, X. Li, M. Caricato, A. V. Marenich, 
 J. Bloino, B. G. Janesko, R. Gomperts, B. Mennucci, H. P. Hratchian, 
 J. V. Ortiz, A. F. Izmaylov, J. L. Sonnenberg, D. Williams-Young, 
 F. Ding, F. Lipparini, F. Egidi, J. Goings, B. Peng, A. Petrone, 
 T. Henderson, D. Ranasinghe, V. G. Zakrzewski, J. Gao, N. Rega, 
 G. Zheng, W. Liang, M. Hada, M. Ehara, K. Toyota, R. Fukuda, 
 J. Hasegawa, M. Ishida, T. Nakajima, Y. Honda, O. Kitao, H. Nakai, 
 T. Vreven, K. Throssell, J. A. Montgomery, Jr., J. E. Peralta, 
 F. Ogliaro, M. J. Bearpark, J. J. Heyd, E. N. Brothers, K. N. Kudin, 
 V. N. Staroverov, T. A. Keith, R. Kobayashi, J. Normand, 
 K. Raghavachari, A. P. Rendell, J. C. Burant, S. S. Iyengar, 
 J. Tomasi, M. Cossi, J. M. Millam, M. Klene, C. Adamo, R. Cammi, 
 J. W. Ochterski, R. L. Martin, K. Morokuma, O. Farkas, 
 J. B. Foresman, and D. J. Fox, Gaussian, Inc., Wallingford CT, 2016.
 
 ******************************************
 Gaussian 16:  ES64L-G16RevA.03 25-Dec-2016
                23-Jan-2026 
 ******************************************
 %nprocshared=16
 Will use up to   16 processors via shared memory.
 %mem=16GB
 %oldchk=DDL-S1-cLR-11.chk
 %chk=DDL-S1-cLR-gs-11.chk
 Copying data from "DDL-S1-cLR-11.chk" to current chk file "DDL-S1-cLR-gs-11.chk"
 IOpt=  2 FromEx=T IUOpen= 4 IOptOp= 5 NList=   0 IFRang= 0 IUIn= 4 IUOut= 2.
 ----------------------------------------------------------------------
 #p CAM-B3LYP TZVP em=gd3bj scrf=(Solvent=TetraHydroFuran,NonEquilibriu
 m=Read) Geom=Check Guess=Read
 ----------------------------------------------------------------------
 1/29=2,38=1,172=1/1;
 2/12=2,40=1/2;
 3/5=19,7=101,11=2,14=-4,25=1,30=1,70=6002201,72=20,74=-40,116=-2,124=41/1,2,3;
 4/5=1/1;
 5/5=2,38=6,53=20/2;
 6/7=2,8=2,9=2,10=2,28=1/1;
 99/5=1,9=1/99;
 Leave Link    1 at Fri Jan 23 22:47:41 2026, MaxMem=  2147483648 cpu:               0.8 elap:               0.2
 (Enter /data/home/wyx/g16/l101.exe)
 -------------------
 Title Card Required
 -------------------
 Structure from the checkpoint file:  "DDL-S1-cLR-gs-11.chk"
 Charge =  0 Multiplicity = 1
 Z-Matrix found in chk file.
 O,0,2.836832,-1.567195,0.12015
 O,0,-3.422894,-1.628617,0.015858
 N,0,-0.643136,1.512703,-0.316036
 H,0,-0.952955,2.470835,-0.368901
 C,0,-1.240696,-0.758744,-0.217253
 C,0,0.695026,1.308926,-0.083284
 C,0,-1.618491,0.5552,-0.27764
 C,0,-2.220632,-1.83308,-0.122747
 C,0,0.212755,-1.103549,-0.308658
 H,0,0.45117,-1.938208,0.351288
 H,0,0.448154,-1.494127,-1.310067
 C,0,1.150319,0.023657,0.001442
 C,0,2.514342,-0.39597,0.310416
 C,0,-3.007478,1.092885,-0.311965
 H,0,-3.009792,2.156926,-0.541857
 H,0,-3.612755,0.57366,-1.046856
 H,0,-3.502717,0.949116,0.644992
 C,0,-1.725627,-3.252464,-0.189204
 H,0,-2.565384,-3.923776,-0.32968
 H,0,-1.007624,-3.405413,-0.990465
 H,0,-1.224877,-3.525203,0.738705
 C,0,3.541426,0.539147,0.901073
 H,0,4.053801,1.090261,0.110327
 H,0,3.115932,1.25815,1.596249
 H,0,4.282359,-0.068284,1.415649
 C,0,1.467761,2.582942,0.03117
 H,0,1.574061,2.894015,1.070281
 H,0,2.458425,2.500964,-0.39802
 H,0,0.952695,3.385241,-0.494964
 Recover connectivity data from disk.
 ITRead=  0  0  0  0  0  0  0  0  0  0  0  0  0  0  0  0  0  0  0  0
 ITRead=  0  0  0  0  0  0  0  0  0
 MicOpt= -1 -1 -1 -1 -1 -1 -1 -1 -1 -1 -1 -1 -1 -1 -1 -1 -1 -1 -1 -1
 MicOpt= -1 -1 -1 -1 -1 -1 -1 -1 -1
 NAtoms=     29 NQM=       29 NQMF=       0 NMMI=      0 NMMIF=      0
                NMic=       0 NMicF=      0.
                    Isotopes and Nuclear Properties:
 (Nuclear quadrupole moments (NQMom) in fm**2, nuclear magnetic moments (NMagM)
  in nuclear magnetons)

  Atom         1           2           3           4           5           6           7           8           9          10
 IAtWgt=          16          16          14           1          12          12          12          12          12           1
 AtmWgt=  15.9949146  15.9949146  14.0030740   1.0078250  12.0000000  12.0000000  12.0000000  12.0000000  12.0000000   1.0078250
 NucSpn=           0           0           2           1           0           0           0           0           0           1
 AtZEff=   5.6000000   5.6000000   4.5500000   1.0000000   3.6000000   3.6000000   3.6000000   3.6000000   3.6000000   1.0000000
 NQMom=    0.0000000   0.0000000   2.0440000   0.0000000   0.0000000   0.0000000   0.0000000   0.0000000   0.0000000   0.0000000
 NMagM=    0.0000000   0.0000000   0.4037610   2.7928460   0.0000000   0.0000000   0.0000000   0.0000000   0.0000000   2.7928460
 AtZNuc=   8.0000000   8.0000000   7.0000000   1.0000000   6.0000000   6.0000000   6.0000000   6.0000000   6.0000000   1.0000000

  Atom        11          12          13          14          15          16          17          18          19          20
 IAtWgt=           1          12          12          12           1           1           1          12           1           1
 AtmWgt=   1.0078250  12.0000000  12.0000000  12.0000000   1.0078250   1.0078250   1.0078250  12.0000000   1.0078250   1.0078250
 NucSpn=           1           0           0           0           1           1           1           0           1           1
 AtZEff=   1.0000000   3.6000000   3.6000000   3.6000000   1.0000000   1.0000000   1.0000000   3.6000000   1.0000000   1.0000000
 NQMom=    0.0000000   0.0000000   0.0000000   0.0000000   0.0000000   0.0000000   0.0000000   0.0000000   0.0000000   0.0000000
 NMagM=    2.7928460   0.0000000   0.0000000   0.0000000   2.7928460   2.7928460   2.7928460   0.0000000   2.7928460   2.7928460
 AtZNuc=   1.0000000   6.0000000   6.0000000   6.0000000   1.0000000   1.0000000   1.0000000   6.0000000   1.0000000   1.0000000

  Atom        21          22          23          24          25          26          27          28          29
 IAtWgt=           1          12           1           1           1          12           1           1           1
 AtmWgt=   1.0078250  12.0000000   1.0078250   1.0078250   1.0078250  12.0000000   1.0078250   1.0078250   1.0078250
 NucSpn=           1           0           1           1           1           0           1           1           1
 AtZEff=   1.0000000   3.6000000   1.0000000   1.0000000   1.0000000   3.6000000   1.0000000   1.0000000   1.0000000
 NQMom=    0.0000000   0.0000000   0.0000000   0.0000000   0.0000000   0.0000000   0.0000000   0.0000000   0.0000000
 NMagM=    2.7928460   0.0000000   2.7928460   2.7928460   2.7928460   0.0000000   2.7928460   2.7928460   2.7928460
 AtZNuc=   1.0000000   6.0000000   1.0000000   1.0000000   1.0000000   6.0000000   1.0000000   1.0000000   1.0000000
 Leave Link  101 at Fri Jan 23 22:47:46 2026, MaxMem=  2147483648 cpu:               0.9 elap:               0.1
 (Enter /data/home/wyx/g16/l202.exe)
                          Input orientation:                          
 ---------------------------------------------------------------------
 Center     Atomic      Atomic             Coordinates (Angstroms)
 Number     Number       Type             X           Y           Z
 ---------------------------------------------------------------------
      1          8           0        2.836832   -1.567195    0.120150
      2          8           0       -3.422894   -1.628617    0.015858
      3          7           0       -0.643136    1.512703   -0.316036
      4          1           0       -0.952955    2.470835   -0.368901
      5          6           0       -1.240696   -0.758744   -0.217253
      6          6           0        0.695026    1.308926   -0.083284
      7          6           0       -1.618491    0.555200   -0.277640
      8          6           0       -2.220632   -1.833080   -0.122747
      9          6           0        0.212755   -1.103549   -0.308658
     10          1           0        0.451170   -1.938208    0.351288
     11          1           0        0.448154   -1.494127   -1.310067
     12          6           0        1.150319    0.023657    0.001442
     13          6           0        2.514342   -0.395970    0.310416
     14          6           0       -3.007478    1.092885   -0.311965
     15          1           0       -3.009792    2.156926   -0.541857
     16          1           0       -3.612755    0.573660   -1.046856
     17          1           0       -3.502717    0.949116    0.644992
     18          6           0       -1.725627   -3.252464   -0.189204
     19          1           0       -2.565384   -3.923776   -0.329680
     20          1           0       -1.007624   -3.405413   -0.990465
     21          1           0       -1.224877   -3.525203    0.738705
     22          6           0        3.541426    0.539147    0.901073
     23          1           0        4.053801    1.090261    0.110327
     24          1           0        3.115932    1.258150    1.596249
     25          1           0        4.282359   -0.068284    1.415649
     26          6           0        1.467761    2.582942    0.031170
     27          1           0        1.574061    2.894015    1.070281
     28          1           0        2.458425    2.500964   -0.398020
     29          1           0        0.952695    3.385241   -0.494964
 ---------------------------------------------------------------------
                    Distance matrix (angstroms):
                    1          2          3          4          5
     1  O    0.000000
     2  O    6.260896   0.000000
     3  N    4.667570   4.207743   0.000000
     4  H    5.559437   4.801473   1.008365   0.000000
     5  C    4.170572   2.360722   2.350810   3.245916   0.000000
     6  C    3.591767   5.059274   1.373454   2.036529   2.835529
     7  C    4.951030   2.847994   1.367334   2.030006   1.368512
     8  C    5.070270   1.227375   3.704068   4.493471   1.457190
     9  C    2.699004   3.687676   2.752704   3.760150   1.496585
    10  H    2.425378   3.900863   3.681252   4.682937   2.139342
    11  H    2.785075   4.094042   3.349633   4.309272   2.141785
    12  C    2.321471   4.862560   2.352558   3.248014   2.525259
    13  C    1.229621   6.070993   3.742344   4.549966   3.809245
    14  C    6.435737   2.772474   2.401328   2.474480   2.561058
    15  H    6.963501   3.848641   2.463144   2.087829   3.425814
    16  H    6.895095   2.452638   3.199146   3.336680   2.844329
    17  H    6.840845   2.654598   3.068943   3.137657   2.962599
    18  C    4.873588   2.357890   4.888219   5.778016   2.540587
    19  H    5.910986   2.474364   5.766327   6.594886   3.432909
    20  H    4.403675   3.162787   4.977507   5.909283   2.767135
    21  H    4.551251   2.991793   5.179903   6.103540   2.927012
    22  C    2.354351   7.347419   4.465392   5.054079   5.079750
    23  H    2.922872   7.956267   4.735130   5.215673   5.617635
    24  H    3.199897   7.320335   4.225189   4.678489   5.131945
    25  H    2.452468   7.985298   5.455158   6.086071   5.800624
    26  C    4.371031   6.454144   2.392039   2.456113   4.308633
    27  H    4.732836   6.821698   2.957340   2.938730   4.787823
    28  H    4.118447   7.198239   3.256234   3.411637   4.933748
    29  H    5.334319   6.674241   2.466798   2.117435   4.696882
                    6          7          8          9         10
     6  C    0.000000
     7  C    2.440950   0.000000
     8  C    4.286586   2.467883   0.000000
     9  C    2.470509   2.471006   2.547185   0.000000
    10  H    3.285148   3.300929   2.715564   1.090425   0.000000
    11  H    3.069698   3.088150   2.940584   1.100356   1.719685
    12  C    1.366158   2.833149   3.850481   1.498593   2.111899
    13  C    2.524199   4.281453   4.967182   2.486207   2.576208
    14  C    3.715845   1.489822   3.035820   3.897978   4.646469
    15  H    3.828194   2.138003   4.088835   4.590195   5.435631
    16  H    4.475049   2.137551   2.929911   4.241756   4.977929
    17  H    4.275616   2.134649   3.158129   4.350588   4.904704
    18  C    5.164984   3.810197   1.504692   2.896451   2.599586
    19  H    6.170264   4.578268   2.129010   3.958810   3.675023
    20  H    5.093818   4.070348   2.167153   2.693096   2.465983
    21  H    5.265975   4.223456   2.144040   3.004690   2.340465
    22  C    3.108619   5.292860   6.314822   3.904094   3.998654
    23  H    3.371449   5.710666   6.925948   4.443195   4.712604
    24  H    2.946896   5.140074   6.402309   4.199373   4.343684
    25  H    4.124617   6.170575   6.911589   4.539459   4.394029
    26  C    1.494435   3.705678   5.755796   3.909059   4.645076
    27  H    2.148470   4.180829   6.178061   4.442426   5.012805
    28  H    2.151648   4.519041   6.383830   4.247768   4.929177
    29  H    2.132360   3.829799   6.118776   4.553181   5.413574
                   11         12         13         14         15
    11  H    0.000000
    12  C    2.125267   0.000000
    13  C    2.846234   1.460175   0.000000
    14  C    4.430602   4.304503   5.752786   0.000000
    15  H    5.087015   4.706648   6.144892   1.088595   0.000000
    16  H    4.564647   4.907984   6.350093   1.084444   1.767857
    17  H    5.039948   4.787627   6.174641   1.087059   1.763630
    18  C    3.012210   4.363528   5.136781   4.532137   5.570902
    19  H    3.993215   5.431235   6.217616   5.036134   6.100611
    20  H    2.423726   4.171225   4.811786   4.969352   5.928705
    21  H    3.334932   4.333534   4.894618   5.060465   6.091991
    22  C    4.311806   2.606235   1.509378   6.683280   6.900559
    23  H    4.658033   3.095110   2.149152   7.073896   7.173386
    24  H    4.810275   2.816206   2.179768   6.415976   6.550098
    25  H    4.915657   3.437748   2.110640   7.581206   7.871395
    26  C    4.411463   2.579068   3.169736   4.729247   4.534130
    27  H    5.117569   3.092075   3.505071   5.113235   4.914672
    28  H    4.564403   2.829799   2.982823   5.645014   5.480917
    29  H    4.972644   3.403780   4.169525   4.579449   4.148766
                   16         17         18         19         20
    16  H    0.000000
    17  H    1.736498   0.000000
    18  C    4.351556   4.637586   0.000000
    19  H    4.673142   5.057040   1.084244   0.000000
    20  H    4.756355   5.278459   1.086711   1.769733   0.000000
    21  H    5.068616   5.021640   1.089106   1.759905   1.746876
    22  C    7.414710   7.060708   6.580795   7.663261   6.311206
    23  H    7.770587   7.576724   7.235383   8.315515   6.858633
    24  H    7.261526   6.693796   6.853771   7.927100   6.741189
    25  H    8.295110   7.889006   6.986448   8.050005   6.701473
    26  C    5.568752   5.267999   6.655693   7.663801   6.559852
    27  H    6.063776   5.453181   7.088967   8.097973   7.112986
    28  H    6.402712   6.247505   7.117010   8.156017   6.873847
    29  H    5.390075   5.204316   7.164218   8.113318   7.085291
                   21         22         23         24         25
    21  H    0.000000
    22  C    6.266015   0.000000
    23  H    7.040015   1.091574   0.000000
    24  H    6.516016   1.086867   1.765148   0.000000
    25  H    6.537445   1.087540   1.760208   1.775555   0.000000
    26  C    6.712700   3.038736   2.986966   2.630782   4.107036
    27  H    7.010732   3.073200   3.213122   2.308693   4.028570
    28  H    7.153569   2.590224   2.189458   2.440084   3.635542
    29  H    7.349694   4.092762   3.905146   3.684736   5.163714
                   26         27         28         29
    26  C    0.000000
    27  H    1.089871   0.000000
    28  H    1.082746   1.758550   0.000000
    29  H    1.088942   1.754249   1.748876   0.000000
 Stoichiometry    C11H15NO2
 Framework group  C1[X(C11H15NO2)]
 Deg. of freedom    81
 Full point group                 C1      NOp   1
 RotChk:  IX=0 Diff= 1.73D-15
 Largest Abelian subgroup         C1      NOp   1
 Largest concise Abelian subgroup C1      NOp   1
                         Standard orientation:                         
 ---------------------------------------------------------------------
 Center     Atomic      Atomic             Coordinates (Angstroms)
 Number     Number       Type             X           Y           Z
 ---------------------------------------------------------------------
      1          8           0        2.287517   -2.279613   -0.217004
      2          8           0       -3.604160   -0.249331    0.387078
      3          7           0        0.023175    1.801873   -0.196104
      4          1           0        0.050541    2.809865   -0.194835
      5          6           0       -1.291464   -0.143192   -0.074635
      6          6           0        1.230668    1.151791   -0.120411
      7          6           0       -1.208647    1.222786   -0.066196
      8          6           0       -2.561310   -0.833903    0.109251
      9          6           0       -0.055988   -0.946095   -0.336760
     10          1           0       -0.047839   -1.848351    0.275526
     11          1           0       -0.067410   -1.335580   -1.365815
     12          6           0        1.232502   -0.214345   -0.112890
     13          6           0        2.399135   -1.080523    0.031380
     14          6           0       -2.331391    2.192910    0.067496
     15          1           0       -1.998180    3.208300   -0.139845
     16          1           0       -3.146529    1.946925   -0.604115
     17          1           0       -2.747670    2.168319    1.071391
     18          6           0       -2.582605   -2.330971   -0.040523
     19          1           0       -3.608987   -2.675662   -0.098072
     20          1           0       -2.042122   -2.668583   -0.920772
     21          1           0       -2.112756   -2.806634    0.819208
     22          6           0        3.734823   -0.575204    0.520061
     23          1           0        4.320988   -0.182230   -0.312714
     24          1           0        3.648235    0.203957    1.272849
     25          1           0        4.275427   -1.422511    0.935467
     26          6           0        2.394702    2.087608   -0.069360
     27          1           0        2.703028    2.286461    0.956900
     28          1           0        3.251612    1.705118   -0.609494
     29          1           0        2.130041    3.043877   -0.518022
 ---------------------------------------------------------------------
 Rotational constants (GHZ):           1.0790154           0.4906639           0.3457062
 Leave Link  202 at Fri Jan 23 22:47:46 2026, MaxMem=  2147483648 cpu:               0.0 elap:               0.0
 (Enter /data/home/wyx/g16/l301.exe)
 Standard basis: TZVP (5D, 7F)
 Ernie: Thresh=  0.10000D-02 Tol=  0.10000D-05 Strict=F.
 There are   370 symmetry adapted cartesian basis functions of A   symmetry.
 There are   356 symmetry adapted basis functions of A   symmetry.
   356 basis functions,   610 primitive gaussians,   370 cartesian basis functions
    52 alpha electrons       52 beta electrons
       nuclear repulsion energy       900.7198647573 Hartrees.
 IExCor=20419 DFT=T Ex+Corr=CAM-B3LYP ExCW=0 ScaHFX=  1.000000
 ScaDFX=  1.000000  1.000000  1.000000  0.810000 ScalE2=  1.000000  1.000000
 IRadAn=      5 IRanWt=     -1 IRanGd=            0 ICorTp=0 IEmpDi=141
 HFx  wShort=  0.000000 wLong=  0.330000 cFull=  0.190000 cShort=  0.000000 cLong=  0.460000
 DFx  wShort=  0.000000 wLong=  0.330000 cFull=  0.190000 cShort=  0.000000 cLong=  0.460000
 NAtoms=   29 NActive=   29 NUniq=   29 SFac= 1.00D+00 NAtFMM=   60 NAOKFM=F Big=F
 Integral buffers will be    131072 words long.
 Raffenetti 2 integral format.
 Two-electron integral symmetry is turned on.
 R6Disp:  Grimme-D3(BJ) Dispersion energy=       -0.0261898535 Hartrees.
 Nuclear repulsion after empirical dispersion term =      900.6936749039 Hartrees.
 ------------------------------------------------------------------------------
 Polarizable Continuum Model (PCM)
 =================================
 Model                : PCM.
 Atomic radii         : UFF (Universal Force Field).
 Polarization charges : Total charges.
 Charge compensation  : None.
 Solution method      : On-the-fly selection.
 Cavity type          : Scaled VdW (van der Waals Surface) (Alpha=1.100).
 Cavity algorithm     : GePol (No added spheres)
                        Default sphere list used, NSphG=   29.
                        Lebedev-Laikov grids with approx.  5.0 points / Ang**2.
                        Smoothing algorithm: York/Karplus (Gamma=1.0000).
                        Polarization charges: spherical gaussians, with
                                              point-specific exponents (IZeta= 3).
                        Self-potential: point-specific (ISelfS= 7).
                        Self-field    : sphere-specific E.n sum rule (ISelfD= 2).
 Solvent              : TetraHydroFuran, Eps=   7.425700 Eps(inf)=   1.974025
 ------------------------------------------------------------------------------
 GePol: Number of generator spheres                  =      29
 GePol: Total number of spheres                      =      29
 GePol: Number of exposed spheres                    =      29 (100.00%)
 GePol: Number of points                             =    2108
 GePol: Average weight of points                     =       0.13
 GePol: Minimum weight of points                     =   0.11D-11
 GePol: Maximum weight of points                     =    0.20577
 GePol: Number of points with low weight             =     142
 GePol: Fraction of low-weight points (<1% of avg)   =       6.74%
 GePol: Cavity surface area                          =    268.460 Ang**2
 GePol: Cavity volume                                =    286.480 Ang**3
 Leave Link  301 at Fri Jan 23 22:47:47 2026, MaxMem=  2147483648 cpu:               0.6 elap:               0.0
 (Enter /data/home/wyx/g16/l302.exe)
 NPDir=0 NMtPBC=     1 NCelOv=     1 NCel=       1 NClECP=     1 NCelD=      1
         NCelK=      1 NCelE2=     1 NClLst=     1 CellRange=     0.0.
 One-electron integrals computed using PRISM.
 One-electron integral symmetry used in STVInt
 NBasis=   356 RedAO= T EigKep=  4.69D-05  NBF=   356
 NBsUse=   356 1.00D-06 EigRej= -1.00D+00 NBFU=   356
 Precomputing XC quadrature grid using
 IXCGrd= 4 IRadAn=           5 IRanWt=          -1 IRanGd=           0 AccXCQ= 0.00D+00.
 Generated NRdTot=       0 NPtTot=           0 NUsed=           0 NTot=          32
 NSgBfM=   366   366   366   366   366 MxSgAt=    29 MxSgA2=    29.
 Leave Link  302 at Fri Jan 23 22:47:48 2026, MaxMem=  2147483648 cpu:               3.1 elap:               0.2
 (Enter /data/home/wyx/g16/l303.exe)
 DipDrv:  MaxL=1.
 Leave Link  303 at Fri Jan 23 22:47:48 2026, MaxMem=  2147483648 cpu:               0.5 elap:               0.0
 (Enter /data/home/wyx/g16/l401.exe)
 Initial guess from the checkpoint file:  "DDL-S1-cLR-gs-11.chk"
 B after Tr=     0.000000    0.000000   -0.000000
         Rot=    1.000000    0.000000    0.000000    0.000000 Ang=   0.00 deg.
 Guess basis will be translated and rotated to current coordinates.
 JPrj=2 DoOrth=T DoCkMO=T.
 Leave Link  401 at Fri Jan 23 22:47:48 2026, MaxMem=  2147483648 cpu:               2.2 elap:               0.2
 (Enter /data/home/wyx/g16/l502.exe)
 Integral symmetry usage will be decided dynamically.
 Closed shell SCF:
 Using DIIS extrapolation, IDIIS=  1040.
 NGot=  2147483648 LenX=  2147200095 LenY=  2147062754
 Requested convergence on RMS density matrix=1.00D-08 within 128 cycles.
 Requested convergence on MAX density matrix=1.00D-06.
 Requested convergence on             energy=1.00D-06.
 No special actions if energy rises.
 Fock matrices will be formed incrementally for  20 cycles.

 Cycle   1  Pass 1  IDiag  1:
 FoFJK:  IHMeth= 1 ICntrl=       0 DoSepK=T KAlg= 0 I1Cent=           0 FoldK=F
 IRaf=         1 NMat=       1 IRICut=       1 DoRegI=T DoRafI=F ISym2E= 0 IDoP0=0 IntGTp=1.
 FoFCou: FMM=F IPFlag=           0 FMFlag=      100000 FMFlg1=           0
         NFxFlg=           0 DoJE=T BraDBF=F KetDBF=F FulRan=T
         wScrn=  0.000000 ICntrl=       500 IOpCl=  0 I1Cent=           0 NGrid=           0
         NMat0=    1 NMatS0=      1 NMatT0=    0 NMatD0=    1 NMtDS0=    0 NMtDT0=    0
 Symmetry not used in FoFCou.
 Inv3:  Mode=1 IEnd=    13330992.
 Iteration    1 A*A^-1 deviation from unit magnitude is 3.77D-15 for   1749.
 Iteration    1 A*A^-1 deviation from orthogonality  is 1.94D-15 for   1687    697.
 Iteration    1 A^-1*A deviation from unit magnitude is 3.77D-15 for   1749.
 Iteration    1 A^-1*A deviation from orthogonality  is 5.92D-15 for   1381   1350.
 NEqPCM:  Using non-equilibrium solvation (IEInf=1, Eps=   7.4257, EpsInf=   1.9740)
 Inv3:  Mode=1 IEnd=    13330992.
 Iteration    1 A*A^-1 deviation from unit magnitude is 2.89D-15 for    367.
 Iteration    1 A*A^-1 deviation from orthogonality  is 1.99D-15 for   1794    631.
 Iteration    1 A^-1*A deviation from unit magnitude is 3.44D-15 for    367.
 Iteration    1 A^-1*A deviation from orthogonality  is 1.40D-15 for   1352    937.
 E= -633.327190797713    
 DIIS: error= 2.33D-04 at cycle   1 NSaved=   1.
 NSaved= 1 IEnMin= 1 EnMin= -633.327190797713     IErMin= 1 ErrMin= 2.33D-04
 ErrMax= 2.33D-04  0.00D+00 EMaxC= 1.00D-01 BMatC= 1.12D-05 BMatP= 1.12D-05
 IDIUse=3 WtCom= 9.98D-01 WtEn= 2.33D-03
 Coeff-Com:  0.100D+01
 Coeff-En:   0.100D+01
 Coeff:      0.100D+01
 Gap=     0.231 Goal=   None    Shift=    0.000
 RMSDP=1.43D-04 MaxDP=8.34D-03              OVMax= 3.20D-03

 Cycle   2  Pass 1  IDiag  1:
 RMSU=  1.42D-04    CP:  9.99D-01
 E= -633.327211066631     Delta-E=       -0.000020268918 Rises=F Damp=F
 DIIS: error= 1.25D-04 at cycle   2 NSaved=   2.
 NSaved= 2 IEnMin= 2 EnMin= -633.327211066631     IErMin= 2 ErrMin= 1.25D-04
 ErrMax= 1.25D-04  0.00D+00 EMaxC= 1.00D-01 BMatC= 7.36D-06 BMatP= 1.12D-05
 IDIUse=3 WtCom= 9.99D-01 WtEn= 1.25D-03
 Coeff-Com:  0.428D+00 0.572D+00
 Coeff-En:   0.000D+00 0.100D+01
 Coeff:      0.428D+00 0.572D+00
 Gap=     0.231 Goal=   None    Shift=    0.000
 RMSDP=2.71D-05 MaxDP=2.05D-03 DE=-2.03D-05 OVMax= 9.55D-04

 Cycle   3  Pass 1  IDiag  1:
 RMSU=  2.20D-05    CP:  1.00D+00  9.16D-01
 E= -633.327217213592     Delta-E=       -0.000006146962 Rises=F Damp=F
 DIIS: error= 8.52D-05 at cycle   3 NSaved=   3.
 NSaved= 3 IEnMin= 3 EnMin= -633.327217213592     IErMin= 3 ErrMin= 8.52D-05
 ErrMax= 8.52D-05  0.00D+00 EMaxC= 1.00D-01 BMatC= 1.50D-06 BMatP= 7.36D-06
 IDIUse=1 WtCom= 1.00D+00 WtEn= 0.00D+00
 Coeff-Com:  0.751D-01 0.295D+00 0.630D+00
 Coeff:      0.751D-01 0.295D+00 0.630D+00
 Gap=     0.231 Goal=   None    Shift=    0.000
 RMSDP=9.78D-06 MaxDP=4.50D-04 DE=-6.15D-06 OVMax= 5.03D-04

 Cycle   4  Pass 1  IDiag  1:
 RMSU=  9.10D-06    CP:  9.99D-01  9.15D-01  8.95D-01
 E= -633.327218423802     Delta-E=       -0.000001210210 Rises=F Damp=F
 DIIS: error= 1.76D-05 at cycle   4 NSaved=   4.
 NSaved= 4 IEnMin= 4 EnMin= -633.327218423802     IErMin= 4 ErrMin= 1.76D-05
 ErrMax= 1.76D-05  0.00D+00 EMaxC= 1.00D-01 BMatC= 1.28D-07 BMatP= 1.50D-06
 IDIUse=1 WtCom= 1.00D+00 WtEn= 0.00D+00
 Coeff-Com: -0.995D-02 0.528D-01 0.247D+00 0.710D+00
 Coeff:     -0.995D-02 0.528D-01 0.247D+00 0.710D+00
 Gap=     0.231 Goal=   None    Shift=    0.000
 RMSDP=4.93D-06 MaxDP=3.15D-04 DE=-1.21D-06 OVMax= 1.65D-04

 Cycle   5  Pass 1  IDiag  1:
 RMSU=  2.90D-06    CP:  1.00D+00  9.22D-01  1.05D+00  1.15D+00
 E= -633.327218536406     Delta-E=       -0.000000112604 Rises=F Damp=F
 DIIS: error= 6.07D-06 at cycle   5 NSaved=   5.
 NSaved= 5 IEnMin= 5 EnMin= -633.327218536406     IErMin= 5 ErrMin= 6.07D-06
 ErrMax= 6.07D-06  0.00D+00 EMaxC= 1.00D-01 BMatC= 2.25D-08 BMatP= 1.28D-07
 IDIUse=1 WtCom= 1.00D+00 WtEn= 0.00D+00
 Coeff-Com: -0.123D-01-0.179D-01 0.252D-01 0.320D+00 0.685D+00
 Coeff:     -0.123D-01-0.179D-01 0.252D-01 0.320D+00 0.685D+00
 Gap=     0.231 Goal=   None    Shift=    0.000
 RMSDP=1.37D-06 MaxDP=7.77D-05 DE=-1.13D-07 OVMax= 7.34D-05

 Cycle   6  Pass 1  IDiag  1:
 RMSU=  9.25D-07    CP:  1.00D+00  9.21D-01  1.07D+00  1.24D+00  1.06D+00
 E= -633.327218561821     Delta-E=       -0.000000025415 Rises=F Damp=F
 DIIS: error= 3.04D-06 at cycle   6 NSaved=   6.
 NSaved= 6 IEnMin= 6 EnMin= -633.327218561821     IErMin= 6 ErrMin= 3.04D-06
 ErrMax= 3.04D-06  0.00D+00 EMaxC= 1.00D-01 BMatC= 2.19D-09 BMatP= 2.25D-08
 IDIUse=1 WtCom= 1.00D+00 WtEn= 0.00D+00
 Coeff-Com: -0.256D-02-0.123D-01-0.120D-01 0.246D-01 0.231D+00 0.771D+00
 Coeff:     -0.256D-02-0.123D-01-0.120D-01 0.246D-01 0.231D+00 0.771D+00
 Gap=     0.231 Goal=   None    Shift=    0.000
 RMSDP=8.44D-07 MaxDP=6.14D-05 DE=-2.54D-08 OVMax= 4.72D-05

 Cycle   7  Pass 1  IDiag  1:
 RMSU=  3.46D-07    CP:  1.00D+00  9.19D-01  1.09D+00  1.28D+00  1.21D+00
                    CP:  1.23D+00
 E= -633.327218565069     Delta-E=       -0.000000003248 Rises=F Damp=F
 DIIS: error= 1.44D-06 at cycle   7 NSaved=   7.
 NSaved= 7 IEnMin= 7 EnMin= -633.327218565069     IErMin= 7 ErrMin= 1.44D-06
 ErrMax= 1.44D-06  0.00D+00 EMaxC= 1.00D-01 BMatC= 7.83D-10 BMatP= 2.19D-09
 IDIUse=1 WtCom= 1.00D+00 WtEn= 0.00D+00
 Coeff-Com:  0.859D-03-0.402D-02-0.776D-02-0.443D-01-0.801D-02 0.409D+00
 Coeff-Com:  0.654D+00
 Coeff:      0.859D-03-0.402D-02-0.776D-02-0.443D-01-0.801D-02 0.409D+00
 Coeff:      0.654D+00
 Gap=     0.231 Goal=   None    Shift=    0.000
 RMSDP=2.91D-07 MaxDP=1.95D-05 DE=-3.25D-09 OVMax= 2.23D-05

 Cycle   8  Pass 1  IDiag  1:
 RMSU=  1.36D-07    CP:  1.00D+00  9.19D-01  1.09D+00  1.30D+00  1.25D+00
                    CP:  1.37D+00  1.03D+00
 E= -633.327218566170     Delta-E=       -0.000000001102 Rises=F Damp=F
 DIIS: error= 5.95D-07 at cycle   8 NSaved=   8.
 NSaved= 8 IEnMin= 8 EnMin= -633.327218566170     IErMin= 8 ErrMin= 5.95D-07
 ErrMax= 5.95D-07  0.00D+00 EMaxC= 1.00D-01 BMatC= 6.49D-11 BMatP= 7.83D-10
 IDIUse=1 WtCom= 1.00D+00 WtEn= 0.00D+00
 Coeff-Com:  0.697D-03 0.415D-04 0.856D-03-0.168D-01-0.446D-01-0.115D-01
 Coeff-Com:  0.176D+00 0.895D+00
 Coeff:      0.697D-03 0.415D-04 0.856D-03-0.168D-01-0.446D-01-0.115D-01
 Coeff:      0.176D+00 0.895D+00
 Gap=     0.231 Goal=   None    Shift=    0.000
 RMSDP=1.64D-07 MaxDP=8.91D-06 DE=-1.10D-09 OVMax= 1.25D-05

 Cycle   9  Pass 1  IDiag  1:
 RMSU=  6.47D-08    CP:  1.00D+00  9.19D-01  1.09D+00  1.30D+00  1.27D+00
                    CP:  1.47D+00  1.21D+00  1.14D+00
 E= -633.327218566329     Delta-E=       -0.000000000159 Rises=F Damp=F
 DIIS: error= 2.50D-07 at cycle   9 NSaved=   9.
 NSaved= 9 IEnMin= 9 EnMin= -633.327218566329     IErMin= 9 ErrMin= 2.50D-07
 ErrMax= 2.50D-07  0.00D+00 EMaxC= 1.00D-01 BMatC= 8.34D-12 BMatP= 6.49D-11
 IDIUse=1 WtCom= 1.00D+00 WtEn= 0.00D+00
 Coeff-Com:  0.120D-03 0.384D-03 0.147D-02 0.117D-02-0.138D-01-0.629D-01
 Coeff-Com: -0.342D-01 0.292D+00 0.816D+00
 Coeff:      0.120D-03 0.384D-03 0.147D-02 0.117D-02-0.138D-01-0.629D-01
 Coeff:     -0.342D-01 0.292D+00 0.816D+00
 Gap=     0.231 Goal=   None    Shift=    0.000
 RMSDP=4.77D-08 MaxDP=1.86D-06 DE=-1.59D-10 OVMax= 4.69D-06

 Cycle  10  Pass 1  IDiag  1:
 RMSU=  2.06D-08    CP:  1.00D+00  9.19D-01  1.09D+00  1.30D+00  1.28D+00
                    CP:  1.49D+00  1.28D+00  1.25D+00  1.22D+00
 E= -633.327218566357     Delta-E=       -0.000000000028 Rises=F Damp=F
 DIIS: error= 9.26D-08 at cycle  10 NSaved=  10.
 NSaved=10 IEnMin=10 EnMin= -633.327218566357     IErMin=10 ErrMin= 9.26D-08
 ErrMax= 9.26D-08  0.00D+00 EMaxC= 1.00D-01 BMatC= 1.59D-12 BMatP= 8.34D-12
 IDIUse=1 WtCom= 1.00D+00 WtEn= 0.00D+00
 Coeff-Com: -0.413D-04 0.177D-03 0.413D-03 0.289D-02 0.159D-03-0.251D-01
 Coeff-Com: -0.363D-01 0.179D-04 0.317D+00 0.741D+00
 Coeff:     -0.413D-04 0.177D-03 0.413D-03 0.289D-02 0.159D-03-0.251D-01
 Coeff:     -0.363D-01 0.179D-04 0.317D+00 0.741D+00
 Gap=     0.231 Goal=   None    Shift=    0.000
 RMSDP=2.15D-08 MaxDP=1.11D-06 DE=-2.80D-11 OVMax= 1.71D-06

 Cycle  11  Pass 1  IDiag  1:
 RMSU=  9.88D-09    CP:  1.00D+00  9.19D-01  1.09D+00  1.30D+00  1.27D+00
                    CP:  1.50D+00  1.31D+00  1.28D+00  1.40D+00  1.22D+00
 E= -633.327218566356     Delta-E=        0.000000000001 Rises=F Damp=F
 DIIS: error= 4.42D-08 at cycle  11 NSaved=  11.
 NSaved=11 IEnMin=10 EnMin= -633.327218566357     IErMin=11 ErrMin= 4.42D-08
 ErrMax= 4.42D-08  0.00D+00 EMaxC= 1.00D-01 BMatC= 5.24D-13 BMatP= 1.59D-12
 IDIUse=1 WtCom= 1.00D+00 WtEn= 0.00D+00
 Coeff-Com: -0.429D-04 0.392D-04-0.136D-03 0.126D-02 0.304D-02 0.108D-02
 Coeff-Com: -0.958D-02-0.599D-01-0.137D-01 0.393D+00 0.685D+00
 Coeff:     -0.429D-04 0.392D-04-0.136D-03 0.126D-02 0.304D-02 0.108D-02
 Coeff:     -0.958D-02-0.599D-01-0.137D-01 0.393D+00 0.685D+00
 Gap=     0.231 Goal=   None    Shift=    0.000
 RMSDP=9.08D-09 MaxDP=3.95D-07 DE= 1.48D-12 OVMax= 7.51D-07

 Error on total polarization charges =  0.00925
 SCF Done:  E(RCAM-B3LYP) =  -633.327218566     A.U. after   11 cycles
            NFock= 11  Conv=0.91D-08     -V/T= 2.0041
 KE= 6.307357752569D+02 PE=-3.277421523034D+03 EE= 1.112664854307D+03
 Leave Link  502 at Fri Jan 23 22:48:32 2026, MaxMem=  2147483648 cpu:             691.9 elap:              43.9
 (Enter /data/home/wyx/g16/l601.exe)
 Copying SCF densities to generalized density rwf, IOpCl= 0 IROHF=0.

 **********************************************************************

            Population analysis using the SCF density.

 **********************************************************************

 Orbital symmetries:
       Occupied  (A) (A) (A) (A) (A) (A) (A) (A) (A) (A) (A) (A)
                 (A) (A) (A) (A) (A) (A) (A) (A) (A) (A) (A) (A)
                 (A) (A) (A) (A) (A) (A) (A) (A) (A) (A) (A) (A)
                 (A) (A) (A) (A) (A) (A) (A) (A) (A) (A) (A) (A)
                 (A) (A) (A) (A)
       Virtual   (A) (A) (A) (A) (A) (A) (A) (A) (A) (A) (A) (A)
                 (A) (A) (A) (A) (A) (A) (A) (A) (A) (A) (A) (A)
                 (A) (A) (A) (A) (A) (A) (A) (A) (A) (A) (A) (A)
                 (A) (A) (A) (A) (A) (A) (A) (A) (A) (A) (A) (A)
                 (A) (A) (A) (A) (A) (A) (A) (A) (A) (A) (A) (A)
                 (A) (A) (A) (A) (A) (A) (A) (A) (A) (A) (A) (A)
                 (A) (A) (A) (A) (A) (A) (A) (A) (A) (A) (A) (A)
                 (A) (A) (A) (A) (A) (A) (A) (A) (A) (A) (A) (A)
                 (A) (A) (A) (A) (A) (A) (A) (A) (A) (A) (A) (A)
                 (A) (A) (A) (A) (A) (A) (A) (A) (A) (A) (A) (A)
                 (A) (A) (A) (A) (A) (A) (A) (A) (A) (A) (A) (A)
                 (A) (A) (A) (A) (A) (A) (A) (A) (A) (A) (A) (A)
                 (A) (A) (A) (A) (A) (A) (A) (A) (A) (A) (A) (A)
                 (A) (A) (A) (A) (A) (A) (A) (A) (A) (A) (A) (A)
                 (A) (A) (A) (A) (A) (A) (A) (A) (A) (A) (A) (A)
                 (A) (A) (A) (A) (A) (A) (A) (A) (A) (A) (A) (A)
                 (A) (A) (A) (A) (A) (A) (A) (A) (A) (A) (A) (A)
                 (A) (A) (A) (A) (A) (A) (A) (A) (A) (A) (A) (A)
                 (A) (A) (A) (A) (A) (A) (A) (A) (A) (A) (A) (A)
                 (A) (A) (A) (A) (A) (A) (A) (A) (A) (A) (A) (A)
                 (A) (A) (A) (A) (A) (A) (A) (A) (A) (A) (A) (A)
                 (A) (A) (A) (A) (A) (A) (A) (A) (A) (A) (A) (A)
                 (A) (A) (A) (A) (A) (A) (A) (A) (A) (A) (A) (A)
                 (A) (A) (A) (A) (A) (A) (A) (A) (A) (A) (A) (A)
                 (A) (A) (A) (A) (A) (A) (A) (A) (A) (A) (A) (A)
                 (A) (A) (A) (A)
 The electronic state is 1-A.
 Alpha  occ. eigenvalues --  -19.17838 -19.17092 -14.44170 -10.33396 -10.32810
 Alpha  occ. eigenvalues --  -10.32190 -10.31532 -10.25991 -10.25058 -10.24744
 Alpha  occ. eigenvalues --  -10.24452 -10.24382 -10.24350 -10.23527  -1.11840
 Alpha  occ. eigenvalues --   -1.11290  -1.07712  -0.91248  -0.90212  -0.83862
 Alpha  occ. eigenvalues --   -0.82549  -0.81662  -0.78471  -0.73827  -0.71430
 Alpha  occ. eigenvalues --   -0.68543  -0.61530  -0.58187  -0.56828  -0.55086
 Alpha  occ. eigenvalues --   -0.54482  -0.53956  -0.52545  -0.51868  -0.50787
 Alpha  occ. eigenvalues --   -0.49897  -0.49489  -0.49166  -0.48605  -0.48029
 Alpha  occ. eigenvalues --   -0.46930  -0.45215  -0.45148  -0.43491  -0.43033
 Alpha  occ. eigenvalues --   -0.42315  -0.42048  -0.41806  -0.32670  -0.32175
 Alpha  occ. eigenvalues --   -0.31113  -0.25643
 Alpha virt. eigenvalues --   -0.02497   0.02626   0.06368   0.08232   0.08500
 Alpha virt. eigenvalues --    0.09969   0.10822   0.11918   0.12651   0.13538
 Alpha virt. eigenvalues --    0.14166   0.14868   0.15689   0.16231   0.16960
 Alpha virt. eigenvalues --    0.17592   0.17828   0.18062   0.18190   0.19247
 Alpha virt. eigenvalues --    0.19975   0.22173   0.22914   0.23514   0.23786
 Alpha virt. eigenvalues --    0.23908   0.24856   0.25682   0.26133   0.26648
 Alpha virt. eigenvalues --    0.27038   0.27704   0.28867   0.29051   0.30212
 Alpha virt. eigenvalues --    0.31749   0.32064   0.32627   0.33644   0.34518
 Alpha virt. eigenvalues --    0.35249   0.36087   0.36787   0.38222   0.38769
 Alpha virt. eigenvalues --    0.39996   0.41127   0.41674   0.42222   0.42703
 Alpha virt. eigenvalues --    0.44091   0.44545   0.45544   0.46109   0.46362
 Alpha virt. eigenvalues --    0.47300   0.47793   0.48197   0.48306   0.49082
 Alpha virt. eigenvalues --    0.49537   0.50604   0.50921   0.51474   0.51740
 Alpha virt. eigenvalues --    0.52872   0.53153   0.53476   0.54191   0.54323
 Alpha virt. eigenvalues --    0.54596   0.55821   0.56261   0.56648   0.58402
 Alpha virt. eigenvalues --    0.58743   0.59165   0.60954   0.61183   0.62894
 Alpha virt. eigenvalues --    0.63550   0.65821   0.66334   0.66550   0.68020
 Alpha virt. eigenvalues --    0.68701   0.70145   0.71290   0.72281   0.72941
 Alpha virt. eigenvalues --    0.73330   0.74009   0.74851   0.76048   0.77937
 Alpha virt. eigenvalues --    0.78578   0.79936   0.82527   0.85197   0.85769
 Alpha virt. eigenvalues --    0.89871   0.93857   1.00438   1.01977   1.23910
 Alpha virt. eigenvalues --    1.25397   1.27112   1.27946   1.29491   1.31386
 Alpha virt. eigenvalues --    1.32669   1.33070   1.34102   1.34996   1.36096
 Alpha virt. eigenvalues --    1.36583   1.37459   1.38326   1.39155   1.39983
 Alpha virt. eigenvalues --    1.40018   1.40504   1.41012   1.41527   1.41826
 Alpha virt. eigenvalues --    1.43480   1.44203   1.44467   1.45241   1.47279
 Alpha virt. eigenvalues --    1.48220   1.49432   1.49780   1.50476   1.51170
 Alpha virt. eigenvalues --    1.51876   1.52517   1.53404   1.54783   1.57988
 Alpha virt. eigenvalues --    1.58523   1.60718   1.60776   1.61415   1.62426
 Alpha virt. eigenvalues --    1.62732   1.63465   1.64236   1.64978   1.65858
 Alpha virt. eigenvalues --    1.66926   1.67315   1.67677   1.68409   1.68516
 Alpha virt. eigenvalues --    1.68882   1.69962   1.70388   1.71760   1.72365
 Alpha virt. eigenvalues --    1.73729   1.75325   1.76257   1.76700   1.78930
 Alpha virt. eigenvalues --    1.80633   1.83117   1.84280   1.86058   1.86630
 Alpha virt. eigenvalues --    1.86939   1.87717   1.88660   1.88942   1.90731
 Alpha virt. eigenvalues --    1.91342   1.94671   1.95261   1.98692   1.99835
 Alpha virt. eigenvalues --    2.01214   2.03914   2.05007   2.06743   2.09699
 Alpha virt. eigenvalues --    2.11212   2.12805   2.14930   2.17235   2.19712
 Alpha virt. eigenvalues --    2.20336   2.21368   2.21979   2.22988   2.26186
 Alpha virt. eigenvalues --    2.27248   2.27585   2.29296   2.31117   2.31986
 Alpha virt. eigenvalues --    2.33599   2.34623   2.36755   2.37520   2.38366
 Alpha virt. eigenvalues --    2.39607   2.40362   2.41734   2.43517   2.45017
 Alpha virt. eigenvalues --    2.46155   2.47893   2.50260   2.50750   2.51782
 Alpha virt. eigenvalues --    2.52344   2.53965   2.55074   2.56836   2.58385
 Alpha virt. eigenvalues --    2.59084   2.60480   2.61441   2.62495   2.62983
 Alpha virt. eigenvalues --    2.64625   2.65896   2.67025   2.67449   2.68941
 Alpha virt. eigenvalues --    2.71686   2.72093   2.73021   2.73958   2.75347
 Alpha virt. eigenvalues --    2.76082   2.76649   2.77440   2.78045   2.79513
 Alpha virt. eigenvalues --    2.80755   2.81797   2.83471   2.83755   2.84551
 Alpha virt. eigenvalues --    2.85654   2.86390   2.88256   2.90103   2.91898
 Alpha virt. eigenvalues --    2.97755   3.00040   3.00882   3.04974   3.10773
 Alpha virt. eigenvalues --    3.12396   3.15822   3.16951   3.17774   3.20957
 Alpha virt. eigenvalues --    3.21493   3.22862   3.24756   3.26269   3.27237
 Alpha virt. eigenvalues --    3.27699   3.29920   3.33540   3.34743   3.36667
 Alpha virt. eigenvalues --    3.37366   3.38828   3.39968   3.40419   3.41972
 Alpha virt. eigenvalues --    3.42541   3.44779   3.45571   3.47263   3.48222
 Alpha virt. eigenvalues --    3.49354   3.49631   3.55336   3.58589   3.59997
 Alpha virt. eigenvalues --    3.60754   3.90556   4.00161   4.34145   4.36569
 Alpha virt. eigenvalues --   21.64972  21.80128  22.08475  22.10984  22.11920
 Alpha virt. eigenvalues --   22.15020  22.15328  22.18777  22.20675  22.24904
 Alpha virt. eigenvalues --   22.29730  31.92740  43.63361  43.66030
          Condensed to atoms (all electrons):
               1          2          3          4          5          6
     1  O    7.935471   0.000000  -0.000222   0.000019   0.016853   0.014476
     2  O    0.000000   7.972782   0.000443   0.000027  -0.198881   0.001044
     3  N   -0.000222   0.000443   6.385735   0.372575  -0.115087   0.328276
     4  H    0.000019   0.000027   0.372575   0.410630   0.016924  -0.047059
     5  C    0.016853  -0.198881  -0.115087   0.016924   7.000823  -0.071203
     6  C    0.014476   0.001044   0.328276  -0.047059  -0.071203   5.603878
     7  C   -0.000345  -0.038248   0.382975  -0.038716   0.409945  -0.099573
     8  C   -0.000329   0.711518   0.004654  -0.000722  -0.261458   0.028181
     9  C   -0.021613   0.020537   0.013121  -0.000074  -0.539397  -0.095720
    10  H    0.013769  -0.000018  -0.001383   0.000019  -0.115574   0.026829
    11  H    0.004647   0.000112   0.003830   0.000020  -0.032195  -0.017452
    12  C   -0.222954  -0.002488  -0.088400   0.014928   0.165563  -0.145397
    13  C    0.715946  -0.000024   0.000861   0.000439   0.076776   0.164781
    14  C   -0.000006  -0.008202  -0.035123  -0.009683  -0.079124   0.010885
    15  H   -0.000000   0.004295   0.003977   0.001641   0.018451   0.006485
    16  H   -0.000000   0.001894   0.000860   0.000774  -0.008104  -0.000935
    17  H   -0.000000   0.002050  -0.002736   0.000926  -0.004979  -0.001839
    18  C    0.000011  -0.105441  -0.000579   0.000019  -0.270893   0.000534
    19  H   -0.000003   0.008846   0.000002  -0.000001   0.024357   0.000027
    20  H    0.000093   0.003707   0.000122   0.000001   0.043377  -0.001151
    21  H    0.000012   0.001026   0.000013  -0.000001   0.004082   0.000237
    22  C   -0.106941   0.000000  -0.000067   0.000120   0.004158  -0.011061
    23  H    0.001291   0.000000  -0.000021  -0.000015  -0.000055   0.010477
    24  H    0.004808  -0.000000  -0.000003  -0.000053  -0.000604  -0.032065
    25  H    0.007501   0.000000   0.000030  -0.000002  -0.000150  -0.001231
    26  C    0.000868   0.000005  -0.029136  -0.006126   0.000304   0.176720
    27  H   -0.000048  -0.000000  -0.002450   0.000442   0.000404  -0.035533
    28  H   -0.000245  -0.000000   0.002490   0.000849  -0.000014  -0.046326
    29  H    0.000025  -0.000000   0.001054   0.001222  -0.000454  -0.049529
               7          8          9         10         11         12
     1  O   -0.000345  -0.000329  -0.021613   0.013769   0.004647  -0.222954
     2  O   -0.038248   0.711518   0.020537  -0.000018   0.000112  -0.002488
     3  N    0.382975   0.004654   0.013121  -0.001383   0.003830  -0.088400
     4  H   -0.038716  -0.000722  -0.000074   0.000019   0.000020   0.014928
     5  C    0.409945  -0.261458  -0.539397  -0.115574  -0.032195   0.165563
     6  C   -0.099573   0.028181  -0.095720   0.026829  -0.017452  -0.145397
     7  C    5.404865  -0.197928  -0.180606   0.018426  -0.005561   0.003469
     8  C   -0.197928   5.356318   0.116996  -0.009645  -0.003909  -0.036513
     9  C   -0.180606   0.116996   6.297185   0.535405   0.395095  -0.023035
    10  H    0.018426  -0.009645   0.535405   0.511745  -0.037835  -0.108432
    11  H   -0.005561  -0.003909   0.395095  -0.037835   0.554365  -0.015595
    12  C    0.003469  -0.036513  -0.023035  -0.108432  -0.015595   7.292646
    13  C    0.013514  -0.006726  -0.260656  -0.001574  -0.001408  -0.419265
    14  C    0.268617  -0.035856   0.009961   0.000560  -0.001252  -0.003788
    15  H   -0.077946   0.005564   0.000159  -0.000003   0.000060  -0.001309
    16  H   -0.027742  -0.007296  -0.000516  -0.000055   0.000192  -0.000005
    17  H   -0.023048  -0.002142   0.000728   0.000055  -0.000066   0.000760
    18  C    0.001301   0.318829   0.003572   0.008455  -0.009880  -0.003763
    19  H    0.000336  -0.052884  -0.000605   0.000583  -0.000017  -0.000185
    20  H    0.001825  -0.065088  -0.010157  -0.005704   0.002428   0.006902
    21  H    0.000490  -0.025052  -0.009239  -0.002069   0.000899  -0.003276
    22  C    0.000003  -0.000063   0.004534   0.000647   0.001897  -0.262443
    23  H    0.000014   0.000003  -0.002110  -0.000120   0.000154  -0.010949
    24  H    0.000000  -0.000005   0.003354  -0.000032  -0.000144   0.066790
    25  H    0.000008   0.000003   0.000275  -0.000120  -0.000051   0.022321
    26  C    0.002817   0.000569   0.020952   0.000042  -0.000737  -0.078115
    27  H   -0.000783  -0.000010  -0.000228   0.000043  -0.000020  -0.018994
    28  H   -0.000748   0.000002  -0.000571   0.000006  -0.000103  -0.007033
    29  H    0.003467  -0.000006  -0.000564  -0.000011   0.000100   0.022851
              13         14         15         16         17         18
     1  O    0.715946  -0.000006  -0.000000  -0.000000  -0.000000   0.000011
     2  O   -0.000024  -0.008202   0.004295   0.001894   0.002050  -0.105441
     3  N    0.000861  -0.035123   0.003977   0.000860  -0.002736  -0.000579
     4  H    0.000439  -0.009683   0.001641   0.000774   0.000926   0.000019
     5  C    0.076776  -0.079124   0.018451  -0.008104  -0.004979  -0.270893
     6  C    0.164781   0.010885   0.006485  -0.000935  -0.001839   0.000534
     7  C    0.013514   0.268617  -0.077946  -0.027742  -0.023048   0.001301
     8  C   -0.006726  -0.035856   0.005564  -0.007296  -0.002142   0.318829
     9  C   -0.260656   0.009961   0.000159  -0.000516   0.000728   0.003572
    10  H   -0.001574   0.000560  -0.000003  -0.000055   0.000055   0.008455
    11  H   -0.001408  -0.001252   0.000060   0.000192  -0.000066  -0.009880
    12  C   -0.419265  -0.003788  -0.001309  -0.000005   0.000760  -0.003763
    13  C    5.480887  -0.000004  -0.000027  -0.000002  -0.000014   0.000699
    14  C   -0.000004   5.055825   0.387353   0.422270   0.408547   0.001563
    15  H   -0.000027   0.387353   0.580093  -0.027890  -0.026305   0.000278
    16  H   -0.000002   0.422270  -0.027890   0.509404  -0.026653  -0.000208
    17  H   -0.000014   0.408547  -0.026305  -0.026653   0.510686  -0.000028
    18  C    0.000699   0.001563   0.000278  -0.000208  -0.000028   5.348064
    19  H   -0.000013   0.000061  -0.000005   0.000031  -0.000025   0.392664
    20  H    0.000580   0.000048  -0.000016  -0.000037   0.000004   0.380873
    21  H   -0.000088  -0.000262  -0.000006   0.000022  -0.000008   0.397083
    22  C    0.286658  -0.000022   0.000002  -0.000000   0.000000   0.000027
    23  H   -0.023050  -0.000001   0.000000  -0.000000   0.000000  -0.000002
    24  H   -0.093693   0.000000   0.000000   0.000000   0.000000   0.000003
    25  H   -0.039729   0.000000   0.000000   0.000000  -0.000000  -0.000001
    26  C   -0.054722   0.001205   0.000116   0.000051  -0.000152   0.000021
    27  H    0.006378  -0.000111  -0.000000   0.000004  -0.000010  -0.000001
    28  H   -0.004447   0.000090  -0.000011  -0.000001   0.000001  -0.000000
    29  H   -0.000751  -0.000258   0.000121  -0.000004   0.000002   0.000000
              19         20         21         22         23         24
     1  O   -0.000003   0.000093   0.000012  -0.106941   0.001291   0.004808
     2  O    0.008846   0.003707   0.001026   0.000000   0.000000  -0.000000
     3  N    0.000002   0.000122   0.000013  -0.000067  -0.000021  -0.000003
     4  H   -0.000001   0.000001  -0.000001   0.000120  -0.000015  -0.000053
     5  C    0.024357   0.043377   0.004082   0.004158  -0.000055  -0.000604
     6  C    0.000027  -0.001151   0.000237  -0.011061   0.010477  -0.032065
     7  C    0.000336   0.001825   0.000490   0.000003   0.000014   0.000000
     8  C   -0.052884  -0.065088  -0.025052  -0.000063   0.000003  -0.000005
     9  C   -0.000605  -0.010157  -0.009239   0.004534  -0.002110   0.003354
    10  H    0.000583  -0.005704  -0.002069   0.000647  -0.000120  -0.000032
    11  H   -0.000017   0.002428   0.000899   0.001897   0.000154  -0.000144
    12  C   -0.000185   0.006902  -0.003276  -0.262443  -0.010949   0.066790
    13  C   -0.000013   0.000580  -0.000088   0.286658  -0.023050  -0.093693
    14  C    0.000061   0.000048  -0.000262  -0.000022  -0.000001   0.000000
    15  H   -0.000005  -0.000016  -0.000006   0.000002   0.000000   0.000000
    16  H    0.000031  -0.000037   0.000022  -0.000000  -0.000000   0.000000
    17  H   -0.000025   0.000004  -0.000008   0.000000   0.000000   0.000000
    18  C    0.392664   0.380873   0.397083   0.000027  -0.000002   0.000003
    19  H    0.507095  -0.022778  -0.010137  -0.000000   0.000000   0.000000
    20  H   -0.022778   0.536177  -0.025280   0.000019  -0.000000  -0.000000
    21  H   -0.010137  -0.025280   0.499892  -0.000013   0.000000  -0.000000
    22  C   -0.000000   0.000019  -0.000013   5.426426   0.400996   0.397232
    23  H    0.000000  -0.000000   0.000000   0.400996   0.495944  -0.027443
    24  H    0.000000  -0.000000  -0.000000   0.397232  -0.027443   0.543475
    25  H   -0.000000  -0.000000   0.000000   0.384520  -0.007906  -0.022092
    26  C    0.000000  -0.000016   0.000005  -0.029249  -0.013756   0.016142
    27  H    0.000000  -0.000000  -0.000000  -0.010817   0.001067  -0.001546
    28  H   -0.000000  -0.000000   0.000000   0.007440  -0.000462  -0.009447
    29  H    0.000000   0.000000  -0.000000   0.001948   0.000212   0.000694
              25         26         27         28         29
     1  O    0.007501   0.000868  -0.000048  -0.000245   0.000025
     2  O    0.000000   0.000005  -0.000000  -0.000000  -0.000000
     3  N    0.000030  -0.029136  -0.002450   0.002490   0.001054
     4  H   -0.000002  -0.006126   0.000442   0.000849   0.001222
     5  C   -0.000150   0.000304   0.000404  -0.000014  -0.000454
     6  C   -0.001231   0.176720  -0.035533  -0.046326  -0.049529
     7  C    0.000008   0.002817  -0.000783  -0.000748   0.003467
     8  C    0.000003   0.000569  -0.000010   0.000002  -0.000006
     9  C    0.000275   0.020952  -0.000228  -0.000571  -0.000564
    10  H   -0.000120   0.000042   0.000043   0.000006  -0.000011
    11  H   -0.000051  -0.000737  -0.000020  -0.000103   0.000100
    12  C    0.022321  -0.078115  -0.018994  -0.007033   0.022851
    13  C   -0.039729  -0.054722   0.006378  -0.004447  -0.000751
    14  C    0.000000   0.001205  -0.000111   0.000090  -0.000258
    15  H    0.000000   0.000116  -0.000000  -0.000011   0.000121
    16  H    0.000000   0.000051   0.000004  -0.000001  -0.000004
    17  H   -0.000000  -0.000152  -0.000010   0.000001   0.000002
    18  C   -0.000001   0.000021  -0.000001  -0.000000   0.000000
    19  H   -0.000000   0.000000   0.000000  -0.000000   0.000000
    20  H   -0.000000  -0.000016  -0.000000  -0.000000   0.000000
    21  H    0.000000   0.000005  -0.000000   0.000000  -0.000000
    22  C    0.384520  -0.029249  -0.010817   0.007440   0.001948
    23  H   -0.007906  -0.013756   0.001067  -0.000462   0.000212
    24  H   -0.022092   0.016142  -0.001546  -0.009447   0.000694
    25  H    0.493766   0.001859   0.000111   0.000790  -0.000041
    26  C    0.001859   5.257449   0.429091   0.428170   0.390710
    27  H    0.000111   0.429091   0.483046  -0.026305  -0.018631
    28  H    0.000790   0.428170  -0.026305   0.511269  -0.026357
    29  H   -0.000041   0.390710  -0.018631  -0.026357   0.519113
 Mulliken charges:
               1
     1  O   -0.363084
     2  O   -0.374984
     3  N   -0.225810
     4  H    0.280877
     5  C   -0.083845
     6  C    0.283244
     7  C    0.179170
     8  C    0.162994
     9  C   -0.276784
    10  H    0.165991
    11  H    0.162427
    12  C   -0.144293
    13  C    0.158677
    14  C   -0.393291
    15  H    0.124921
    16  H    0.163944
    17  H    0.164245
    18  C   -0.463199
    19  H    0.152650
    20  H    0.154069
    21  H    0.171671
    22  C   -0.495951
    23  H    0.175731
    24  H    0.154629
    25  H    0.160142
    26  C   -0.515089
    27  H    0.194899
    28  H    0.170964
    29  H    0.155084
 Sum of Mulliken charges =  -0.00000
 Mulliken charges with hydrogens summed into heavy atoms:
               1
     1  O   -0.363084
     2  O   -0.374984
     3  N    0.055067
     5  C   -0.083845
     6  C    0.283244
     7  C    0.179170
     8  C    0.162994
     9  C    0.051633
    12  C   -0.144293
    13  C    0.158677
    14  C    0.059819
    18  C    0.015191
    22  C   -0.005449
    26  C    0.005858
 Electronic spatial extent (au):  <R**2>=           3189.6225
 Charge=              0.0000 electrons
 Dipole moment (field-independent basis, Debye):
    X=              3.8435    Y=              7.2072    Z=             -0.1969  Tot=              8.1704
 Quadrupole moment (field-independent basis, Debye-Ang):
   XX=            -98.2481   YY=            -78.5543   ZZ=            -84.9088
   XY=             12.2833   XZ=              5.0105   YZ=             -1.7336
 Traceless Quadrupole moment (field-independent basis, Debye-Ang):
   XX=            -11.0110   YY=              8.6828   ZZ=              2.3282
   XY=             12.2833   XZ=              5.0105   YZ=             -1.7336
 Octapole moment (field-independent basis, Debye-Ang**2):
  XXX=            105.9165  YYY=             62.4433  ZZZ=              1.6640  XYY=            -34.2359
  XXY=             30.1718  XXZ=             -8.6024  XZZ=              1.5979  YZZ=             -1.4621
  YYZ=              3.5582  XYZ=             -5.1895
 Hexadecapole moment (field-independent basis, Debye-Ang**3):
 XXXX=          -3042.2284 YYYY=          -1280.7162 ZZZZ=           -152.2808 XXXY=             34.2039
 XXXZ=             56.8925 YYYX=             86.1407 YYYZ=            -20.8610 ZZZX=             -3.1138
 ZZZY=              4.7350 XXYY=           -691.8632 XXZZ=           -484.1003 YYZZ=           -243.3468
 XXYZ=             -7.7122 YYXZ=              7.5988 ZZXY=             -1.0988
 N-N= 9.006936749039D+02 E-N=-3.277421519435D+03  KE= 6.307357752569D+02
 No NMR shielding tensors so no spin-rotation constants.
 Leave Link  601 at Fri Jan 23 22:48:33 2026, MaxMem=  2147483648 cpu:               1.8 elap:               0.1
 (Enter /data/home/wyx/g16/l9999.exe)
 1\1\GINC-CN012\SP\RCAM-B3LYP\TZVP\C11H15N1O2\WYX\23-Jan-2026\0\\#p CAM
 -B3LYP TZVP em=gd3bj scrf=(Solvent=TetraHydroFuran,NonEquilibrium=Read
 ) Geom=Check Guess=Read\\Title Card Required\\0,1\O,0,2.836832,-1.5671
 95,0.12015\O,0,-3.422894,-1.628617,0.015858\N,0,-0.643136,1.512703,-0.
 316036\H,0,-0.952955,2.470835,-0.368901\C,0,-1.240696,-0.758744,-0.217
 253\C,0,0.695026,1.308926,-0.083284\C,0,-1.618491,0.5552,-0.27764\C,0,
 -2.220632,-1.83308,-0.122747\C,0,0.212755,-1.103549,-0.308658\H,0,0.45
 117,-1.938208,0.351288\H,0,0.448154,-1.494127,-1.310067\C,0,1.150319,0
 .023657,0.001442\C,0,2.514342,-0.39597,0.310416\C,0,-3.007478,1.092885
 ,-0.311965\H,0,-3.009792,2.156926,-0.541857\H,0,-3.612755,0.57366,-1.0
 46856\H,0,-3.502717,0.949116,0.644992\C,0,-1.725627,-3.252464,-0.18920
 4\H,0,-2.565384,-3.923776,-0.32968\H,0,-1.007624,-3.405413,-0.990465\H
 ,0,-1.224877,-3.525203,0.738705\C,0,3.541426,0.539147,0.901073\H,0,4.0
 53801,1.090261,0.110327\H,0,3.115932,1.25815,1.596249\H,0,4.282359,-0.
 068284,1.415649\C,0,1.467761,2.582942,0.03117\H,0,1.574061,2.894015,1.
 070281\H,0,2.458425,2.500964,-0.39802\H,0,0.952695,3.385241,-0.494964\
 \Version=ES64L-G16RevA.03\State=1-A\HF=-633.3272186\RMSD=9.075e-09\Dip
 ole=0.4812903,3.1770945,-0.0855162\Quadrupole=-13.0142428,10.5853746,2
 .4288682,2.4904244,2.212605,0.1516147\PG=C01 [X(C11H15N1O2)]\\@


 LIFE CAN ONLY BE UNDERSTOOD BACKWARD, BUT MUST
 BE LIVED FORWARD. -- KIRKEGAARD
 Job cpu time:       0 days  0 hours 11 minutes 42.4 seconds.
 Elapsed time:       0 days  0 hours  0 minutes 44.8 seconds.
 File lengths (MBytes):  RWF=    341 Int=      0 D2E=      0 Chk=     67 Scr=      1
 Normal termination of Gaussian 16 at Fri Jan 23 22:48:33 2026.
