 Entering Gaussian System, Link 0=g16
 Input=DDL-S1-cLR-gs-9.gjf
 Output=DDL-S1-cLR-gs-9.log
 Initial command:
 /data/home/wyx/g16/l1.exe "/scr/tmp/wyx/13106/Gau-1986818.inp" -scrdir="/scr/tmp/wyx/13106/"
 Entering Link 1 = /data/home/wyx/g16/l1.exe PID=   1986819.
  
 Copyright (c) 1988,1990,1992,1993,1995,1998,2003,2009,2016,
            Gaussian, Inc.  All Rights Reserved.
  
 This is part of the Gaussian(R) 16 program.  It is based on
 the Gaussian(R) 09 system (copyright 2009, Gaussian, Inc.),
 the Gaussian(R) 03 system (copyright 2003, Gaussian, Inc.),
 the Gaussian(R) 98 system (copyright 1998, Gaussian, Inc.),
 the Gaussian(R) 94 system (copyright 1995, Gaussian, Inc.),
 the Gaussian 92(TM) system (copyright 1992, Gaussian, Inc.),
 the Gaussian 90(TM) system (copyright 1990, Gaussian, Inc.),
 the Gaussian 88(TM) system (copyright 1988, Gaussian, Inc.),
 the Gaussian 86(TM) system (copyright 1986, Carnegie Mellon
 University), and the Gaussian 82(TM) system (copyright 1983,
 Carnegie Mellon University). Gaussian is a federally registered
 trademark of Gaussian, Inc.
  
 This software contains proprietary and confidential information,
 including trade secrets, belonging to Gaussian, Inc.
  
 This software is provided under written license and may be
 used, copied, transmitted, or stored only in accord with that
 written license.
  
 The following legend is applicable only to US Government
 contracts under FAR:
  
                    RESTRICTED RIGHTS LEGEND
  
 Use, reproduction and disclosure by the US Government is
 subject to restrictions as set forth in subparagraphs (a)
 and (c) of the Commercial Computer Software - Restricted
 Rights clause in FAR 52.227-19.
  
 Gaussian, Inc.
 340 Quinnipiac St., Bldg. 40, Wallingford CT 06492
  
  
 ---------------------------------------------------------------
 Warning -- This program may not be used in any manner that
 competes with the business of Gaussian, Inc. or will provide
 assistance to any competitor of Gaussian, Inc.  The licensee
 of this program is prohibited from giving any competitor of
 Gaussian, Inc. access to this program.  By using this program,
 the user acknowledges that Gaussian, Inc. is engaged in the
 business of creating and licensing software in the field of
 computational chemistry and represents and warrants to the
 licensee that it is not a competitor of Gaussian, Inc. and that
 it will not use this program in any manner prohibited above.
 ---------------------------------------------------------------
  

 Cite this work as:
 Gaussian 16, Revision A.03,
 M. J. Frisch, G. W. Trucks, H. B. Schlegel, G. E. Scuseria, 
 M. A. Robb, J. R. Cheeseman, G. Scalmani, V. Barone, 
 G. A. Petersson, H. Nakatsuji, X. Li, M. Caricato, A. V. Marenich, 
 J. Bloino, B. G. Janesko, R. Gomperts, B. Mennucci, H. P. Hratchian, 
 J. V. Ortiz, A. F. Izmaylov, J. L. Sonnenberg, D. Williams-Young, 
 F. Ding, F. Lipparini, F. Egidi, J. Goings, B. Peng, A. Petrone, 
 T. Henderson, D. Ranasinghe, V. G. Zakrzewski, J. Gao, N. Rega, 
 G. Zheng, W. Liang, M. Hada, M. Ehara, K. Toyota, R. Fukuda, 
 J. Hasegawa, M. Ishida, T. Nakajima, Y. Honda, O. Kitao, H. Nakai, 
 T. Vreven, K. Throssell, J. A. Montgomery, Jr., J. E. Peralta, 
 F. Ogliaro, M. J. Bearpark, J. J. Heyd, E. N. Brothers, K. N. Kudin, 
 V. N. Staroverov, T. A. Keith, R. Kobayashi, J. Normand, 
 K. Raghavachari, A. P. Rendell, J. C. Burant, S. S. Iyengar, 
 J. Tomasi, M. Cossi, J. M. Millam, M. Klene, C. Adamo, R. Cammi, 
 J. W. Ochterski, R. L. Martin, K. Morokuma, O. Farkas, 
 J. B. Foresman, and D. J. Fox, Gaussian, Inc., Wallingford CT, 2016.
 
 ******************************************
 Gaussian 16:  ES64L-G16RevA.03 25-Dec-2016
                23-Jan-2026 
 ******************************************
 %nprocshared=16
 Will use up to   16 processors via shared memory.
 %mem=16GB
 %oldchk=DDL-S1-cLR-9.chk
 %chk=DDL-S1-cLR-gs-9.chk
 Copying data from "DDL-S1-cLR-9.chk" to current chk file "DDL-S1-cLR-gs-9.chk"
 IOpt=  2 FromEx=T IUOpen= 4 IOptOp= 5 NList=   0 IFRang= 0 IUIn= 4 IUOut= 2.
 ----------------------------------------------------------------------
 #p CAM-B3LYP TZVP em=gd3bj scrf=(Solvent=TetraHydroFuran,NonEquilibriu
 m=Read) Geom=Check Guess=Read
 ----------------------------------------------------------------------
 1/29=2,38=1,172=1/1;
 2/12=2,40=1/2;
 3/5=19,7=101,11=2,14=-4,25=1,30=1,70=6002201,72=20,74=-40,116=-2,124=41/1,2,3;
 4/5=1/1;
 5/5=2,38=6,53=20/2;
 6/7=2,8=2,9=2,10=2,28=1/1;
 99/5=1,9=1/99;
 Leave Link    1 at Fri Jan 23 22:44:13 2026, MaxMem=  2147483648 cpu:               0.8 elap:               0.1
 (Enter /data/home/wyx/g16/l101.exe)
 -------------------
 Title Card Required
 -------------------
 Structure from the checkpoint file:  "DDL-S1-cLR-gs-9.chk"
 Charge =  0 Multiplicity = 1
 Z-Matrix found in chk file.
 O,0,2.837701,-1.568794,0.099575
 O,0,-3.424887,-1.633626,-0.023394
 N,0,-0.648557,1.514105,-0.28348
 H,0,-0.958923,2.472813,-0.335497
 C,0,-1.242714,-0.759619,-0.213198
 C,0,0.69099,1.315312,-0.068392
 C,0,-1.623381,0.560964,-0.267788
 C,0,-2.218501,-1.836292,-0.137758
 C,0,0.208122,-1.098186,-0.27883
 H,0,0.440051,-1.925951,0.394092
 H,0,0.454774,-1.511322,-1.26971
 C,0,1.149597,0.024304,0.011447
 C,0,2.515362,-0.397443,0.300322
 C,0,-3.011666,1.096031,-0.321259
 H,0,-3.013226,2.16616,-0.520073
 H,0,-3.59624,0.598471,-1.087329
 H,0,-3.532545,0.922923,0.6165
 C,0,-1.722039,-3.255398,-0.18837
 H,0,-2.554606,-3.925421,-0.369789
 H,0,-0.968739,-3.410473,-0.955159
 H,0,-1.267388,-3.534461,0.760825
 C,0,3.547711,0.53628,0.883789
 H,0,4.058453,1.084444,0.089786
 H,0,3.127949,1.257926,1.579702
 H,0,4.289324,-0.072038,1.396503
 C,0,1.467824,2.586963,0.029545
 H,0,1.609693,2.894746,1.065273
 H,0,2.444785,2.503228,-0.430565
 H,0,0.941078,3.394356,-0.476767
 Recover connectivity data from disk.
 ITRead=  0  0  0  0  0  0  0  0  0  0  0  0  0  0  0  0  0  0  0  0
 ITRead=  0  0  0  0  0  0  0  0  0
 MicOpt= -1 -1 -1 -1 -1 -1 -1 -1 -1 -1 -1 -1 -1 -1 -1 -1 -1 -1 -1 -1
 MicOpt= -1 -1 -1 -1 -1 -1 -1 -1 -1
 NAtoms=     29 NQM=       29 NQMF=       0 NMMI=      0 NMMIF=      0
                NMic=       0 NMicF=      0.
                    Isotopes and Nuclear Properties:
 (Nuclear quadrupole moments (NQMom) in fm**2, nuclear magnetic moments (NMagM)
  in nuclear magnetons)

  Atom         1           2           3           4           5           6           7           8           9          10
 IAtWgt=          16          16          14           1          12          12          12          12          12           1
 AtmWgt=  15.9949146  15.9949146  14.0030740   1.0078250  12.0000000  12.0000000  12.0000000  12.0000000  12.0000000   1.0078250
 NucSpn=           0           0           2           1           0           0           0           0           0           1
 AtZEff=   5.6000000   5.6000000   4.5500000   1.0000000   3.6000000   3.6000000   3.6000000   3.6000000   3.6000000   1.0000000
 NQMom=    0.0000000   0.0000000   2.0440000   0.0000000   0.0000000   0.0000000   0.0000000   0.0000000   0.0000000   0.0000000
 NMagM=    0.0000000   0.0000000   0.4037610   2.7928460   0.0000000   0.0000000   0.0000000   0.0000000   0.0000000   2.7928460
 AtZNuc=   8.0000000   8.0000000   7.0000000   1.0000000   6.0000000   6.0000000   6.0000000   6.0000000   6.0000000   1.0000000

  Atom        11          12          13          14          15          16          17          18          19          20
 IAtWgt=           1          12          12          12           1           1           1          12           1           1
 AtmWgt=   1.0078250  12.0000000  12.0000000  12.0000000   1.0078250   1.0078250   1.0078250  12.0000000   1.0078250   1.0078250
 NucSpn=           1           0           0           0           1           1           1           0           1           1
 AtZEff=   1.0000000   3.6000000   3.6000000   3.6000000   1.0000000   1.0000000   1.0000000   3.6000000   1.0000000   1.0000000
 NQMom=    0.0000000   0.0000000   0.0000000   0.0000000   0.0000000   0.0000000   0.0000000   0.0000000   0.0000000   0.0000000
 NMagM=    2.7928460   0.0000000   0.0000000   0.0000000   2.7928460   2.7928460   2.7928460   0.0000000   2.7928460   2.7928460
 AtZNuc=   1.0000000   6.0000000   6.0000000   6.0000000   1.0000000   1.0000000   1.0000000   6.0000000   1.0000000   1.0000000

  Atom        21          22          23          24          25          26          27          28          29
 IAtWgt=           1          12           1           1           1          12           1           1           1
 AtmWgt=   1.0078250  12.0000000   1.0078250   1.0078250   1.0078250  12.0000000   1.0078250   1.0078250   1.0078250
 NucSpn=           1           0           1           1           1           0           1           1           1
 AtZEff=   1.0000000   3.6000000   1.0000000   1.0000000   1.0000000   3.6000000   1.0000000   1.0000000   1.0000000
 NQMom=    0.0000000   0.0000000   0.0000000   0.0000000   0.0000000   0.0000000   0.0000000   0.0000000   0.0000000
 NMagM=    2.7928460   0.0000000   2.7928460   2.7928460   2.7928460   0.0000000   2.7928460   2.7928460   2.7928460
 AtZNuc=   1.0000000   6.0000000   1.0000000   1.0000000   1.0000000   6.0000000   1.0000000   1.0000000   1.0000000
 Leave Link  101 at Fri Jan 23 22:44:15 2026, MaxMem=  2147483648 cpu:               0.9 elap:               0.1
 (Enter /data/home/wyx/g16/l202.exe)
                          Input orientation:                          
 ---------------------------------------------------------------------
 Center     Atomic      Atomic             Coordinates (Angstroms)
 Number     Number       Type             X           Y           Z
 ---------------------------------------------------------------------
      1          8           0        2.837701   -1.568794    0.099575
      2          8           0       -3.424887   -1.633626   -0.023394
      3          7           0       -0.648557    1.514105   -0.283480
      4          1           0       -0.958923    2.472813   -0.335497
      5          6           0       -1.242714   -0.759619   -0.213198
      6          6           0        0.690990    1.315312   -0.068392
      7          6           0       -1.623381    0.560964   -0.267788
      8          6           0       -2.218501   -1.836292   -0.137758
      9          6           0        0.208122   -1.098186   -0.278830
     10          1           0        0.440051   -1.925951    0.394092
     11          1           0        0.454774   -1.511322   -1.269710
     12          6           0        1.149597    0.024304    0.011447
     13          6           0        2.515362   -0.397443    0.300322
     14          6           0       -3.011666    1.096031   -0.321259
     15          1           0       -3.013226    2.166160   -0.520073
     16          1           0       -3.596240    0.598471   -1.087329
     17          1           0       -3.532545    0.922923    0.616500
     18          6           0       -1.722039   -3.255398   -0.188370
     19          1           0       -2.554606   -3.925421   -0.369789
     20          1           0       -0.968739   -3.410473   -0.955159
     21          1           0       -1.267388   -3.534461    0.760825
     22          6           0        3.547711    0.536280    0.883789
     23          1           0        4.058453    1.084444    0.089786
     24          1           0        3.127949    1.257926    1.579702
     25          1           0        4.289324   -0.072038    1.396503
     26          6           0        1.467824    2.586963    0.029545
     27          1           0        1.609693    2.894746    1.065273
     28          1           0        2.444785    2.503228   -0.430565
     29          1           0        0.941078    3.394356   -0.476767
 ---------------------------------------------------------------------
                    Distance matrix (angstroms):
                    1          2          3          4          5
     1  O    0.000000
     2  O    6.264131   0.000000
     3  N    4.669582   4.205219   0.000000
     4  H    5.562214   4.800128   1.009036   0.000000
     5  C    4.171616   2.358345   2.351124   3.247170   0.000000
     6  C    3.599257   5.063468   1.371192   2.033068   2.839986
     7  C    4.957023   2.849803   1.363454   2.025156   1.375437
     8  C    5.068832   1.228625   3.702853   4.493776   1.455018
     9  C    2.698027   3.681127   2.749179   3.757291   1.491261
    10  H    2.441931   3.898396   3.671261   4.673174   2.135610
    11  H    2.748924   4.076767   3.367966   4.329506   2.136057
    12  C    2.322805   4.865784   2.353688   3.249834   2.527479
    13  C    1.231367   6.076142   3.742355   4.551186   3.810251
    14  C    6.441544   2.776779   2.400104   2.471737   2.565990
    15  H    6.969017   3.854157   2.464307   2.085249   3.433521
    16  H    6.892124   2.478624   3.189576   3.321724   2.854400
    17  H    6.859730   2.637612   3.078449   3.151506   2.960181
    18  C    4.870192   2.357340   4.889741   5.780691   2.541512
    19  H    5.903471   2.475824   5.764453   6.594299   3.430435
    20  H    4.358122   3.171440   4.980476   5.915837   2.766332
    21  H    4.599223   2.980432   5.192451   6.114279   2.940931
    22  C    2.355938   7.358573   4.464003   5.054361   5.082411
    23  H    2.920617   7.962480   4.741295   5.223265   5.620920
    24  H    3.203961   7.339663   4.218895   4.674020   5.136893
    25  H    2.455506   7.997732   5.451684   6.084422   5.802357
    26  C    4.376275   6.461795   2.393340   2.456702   4.313415
    27  H    4.729034   6.858451   2.970690   2.956006   4.808856
    28  H    4.125142   7.192524   3.250963   3.405171   4.928597
    29  H    5.344362   6.674414   2.469746   2.116413   4.700417
                    6          7          8          9         10
     6  C    0.000000
     7  C    2.442358   0.000000
     8  C    4.289820   2.473441   0.000000
     9  C    2.470307   2.471296   2.540315   0.000000
    10  H    3.283694   3.298573   2.712711   1.091700   0.000000
    11  H    3.080393   3.101120   2.921185   1.101527   1.714751
    12  C    1.372369   2.838201   3.850735   1.493526   2.110300
    13  C    2.529390   4.286081   4.967057   2.479882   2.579156
    14  C    3.717753   1.488788   3.043239   3.896591   4.643108
    15  H    3.827424   2.138217   4.098460   4.592520   5.431960
    16  H    4.464576   2.136639   2.954305   4.243287   4.985876
    17  H    4.296661   2.134921   3.147838   4.345007   4.893574
    18  C    5.169961   3.818463   1.504293   2.896078   2.604098
    19  H    6.171711   4.583147   2.128677   3.954010   3.680946
    20  H    5.086659   4.083301   2.169815   2.681249   2.451321
    21  H    5.295578   4.237603   2.143792   3.032070   2.374267
    22  C    3.110369   5.297823   6.318375   3.895641   3.994989
    23  H    3.379072   5.717091   6.926949   4.441261   4.716769
    24  H    2.942495   5.145300   6.411582   4.186979   4.332152
    25  H    4.125368   6.175001   6.915080   4.529451   4.388476
    26  C    1.493372   3.707914   5.760396   3.906695   4.642801
    27  H    2.150308   4.204326   6.203634   4.440104   5.005763
    28  H    2.148979   4.510971   6.376787   4.242154   4.931191
    29  H    2.133480   3.827301   6.120257   4.556242   5.414341
                   11         12         13         14         15
    11  H    0.000000
    12  C    2.117142   0.000000
    13  C    2.819885   1.458298   0.000000
    14  C    4.440051   4.309919   5.758895   0.000000
    15  H    5.110074   4.711598   6.149016   1.088442   0.000000
    16  H    4.571127   4.905094   6.345794   1.084507   1.766163
    17  H    5.038060   4.805836   6.198428   1.086588   1.762705
    18  C    2.991590   4.363790   5.134422   4.540455   5.583053
    19  H    3.961578   5.428332   6.212910   5.042444   6.110669
    20  H    2.394182   4.149623   4.774258   4.988382   5.955507
    21  H    3.343951   4.366714   4.935802   5.065063   6.098010
    22  C    4.289113   2.602701   1.509310   6.692600   6.904580
    23  H    4.644646   3.097011   2.149754   7.082067   7.179880
    24  H    4.788919   2.809826   2.179982   6.429210   6.553470
    25  H    4.887126   3.433009   2.110555   7.590754   7.874645
    26  C    4.417044   2.582405   3.174482   4.734107   4.534199
    27  H    5.118537   3.092196   3.499128   5.149253   4.941208
    28  H    4.558609   2.831599   2.992168   5.636045   5.469142
    29  H    4.993088   3.411610   4.178514   4.575004   4.140877
                   16         17         18         19         20
    16  H    0.000000
    17  H    1.735615   0.000000
    18  C    4.378706   4.624296   0.000000
    19  H    4.697389   5.043369   1.083979   0.000000
    20  H    4.795087   5.274612   1.086036   1.767146   0.000000
    21  H    5.091203   5.002003   1.088832   1.757290   1.746186
    22  C    7.411154   7.095841   6.580016   7.662670   6.273509
    23  H    7.759903   7.610964   7.233650   8.309182   6.824137
    24  H    7.263791   6.738113   6.857008   7.934673   6.708377
    25  H    8.294644   7.923382   6.984418   8.050325   6.657529
    26  C    5.553940   5.302569   6.660022   7.664891   6.547955
    27  H    6.083446   5.525585   7.106077   8.118834   7.105367
    28  H    6.368157   6.270740   7.112162   8.144024   6.848299
    29  H    5.364421   5.226521   7.169002   8.112360   7.083922
                   21         22         23         24         25
    21  H    0.000000
    22  C    6.306444   0.000000
    23  H    7.081607   1.091688   0.000000
    24  H    6.554122   1.086862   1.765158   0.000000
    25  H    6.577956   1.087620   1.760188   1.775150   0.000000
    26  C    6.744478   3.043183   2.995422   2.631604   4.110927
    27  H    7.050176   3.057975   3.197686   2.291052   4.011476
    28  H    7.187025   2.610145   2.210800   2.461435   3.656842
    29  H    7.376819   4.100518   3.921059   3.684536   5.170665
                   26         27         28         29
    26  C    0.000000
    27  H    1.089766   0.000000
    28  H    1.083128   1.757326   0.000000
    29  H    1.088897   1.753438   1.748536   0.000000
 Stoichiometry    C11H15NO2
 Framework group  C1[X(C11H15NO2)]
 Deg. of freedom    81
 Full point group                 C1      NOp   1
 RotChk:  IX=0 Diff= 1.43D-15
 Largest Abelian subgroup         C1      NOp   1
 Largest concise Abelian subgroup C1      NOp   1
                         Standard orientation:                         
 ---------------------------------------------------------------------
 Center     Atomic      Atomic             Coordinates (Angstroms)
 Number     Number       Type             X           Y           Z
 ---------------------------------------------------------------------
      1          8           0        2.286895   -2.280976   -0.230939
      2          8           0       -3.610607   -0.251655    0.352723
      3          7           0        0.021980    1.802051   -0.167339
      4          1           0        0.048851    2.810729   -0.168236
      5          6           0       -1.292521   -0.144731   -0.067799
      6          6           0        1.230888    1.157688   -0.108123
      7          6           0       -1.209925    1.228184   -0.057373
      8          6           0       -2.560885   -0.837773    0.099605
      9          6           0       -0.054766   -0.942739   -0.302328
     10          1           0       -0.048406   -1.835173    0.326426
     11          1           0       -0.062786   -1.360896   -1.321368
     12          6           0        1.233762   -0.214663   -0.101777
     13          6           0        2.399610   -1.081600    0.024123
     14          6           0       -2.334984    2.196742    0.054998
     15          1           0       -1.996292    3.215407   -0.124764
     16          1           0       -3.126985    1.963682   -0.648261
     17          1           0       -2.786385    2.157026    1.042588
     18          6           0       -2.578836   -2.336363   -0.030026
     19          1           0       -3.602130   -2.680486   -0.127290
     20          1           0       -2.003062   -2.692093   -0.879387
     21          1           0       -2.151418   -2.801042    0.857071
     22          6           0        3.739237   -0.577134    0.502593
     23          1           0        4.321879   -0.188599   -0.334874
     24          1           0        3.659291    0.204830    1.253199
     25          1           0        4.280496   -1.423997    0.918258
     26          6           0        2.396089    2.091249   -0.077622
     27          1           0        2.736919    2.278545    0.940388
     28          1           0        3.236192    1.711897   -0.646379
     29          1           0        2.123649    3.053707   -0.507910
 ---------------------------------------------------------------------
 Rotational constants (GHZ):           1.0784813           0.4905461           0.3450116
 Leave Link  202 at Fri Jan 23 22:44:15 2026, MaxMem=  2147483648 cpu:               0.0 elap:               0.0
 (Enter /data/home/wyx/g16/l301.exe)
 Standard basis: TZVP (5D, 7F)
 Ernie: Thresh=  0.10000D-02 Tol=  0.10000D-05 Strict=F.
 There are   370 symmetry adapted cartesian basis functions of A   symmetry.
 There are   356 symmetry adapted basis functions of A   symmetry.
   356 basis functions,   610 primitive gaussians,   370 cartesian basis functions
    52 alpha electrons       52 beta electrons
       nuclear repulsion energy       900.5092465749 Hartrees.
 IExCor=20419 DFT=T Ex+Corr=CAM-B3LYP ExCW=0 ScaHFX=  1.000000
 ScaDFX=  1.000000  1.000000  1.000000  0.810000 ScalE2=  1.000000  1.000000
 IRadAn=      5 IRanWt=     -1 IRanGd=            0 ICorTp=0 IEmpDi=141
 HFx  wShort=  0.000000 wLong=  0.330000 cFull=  0.190000 cShort=  0.000000 cLong=  0.460000
 DFx  wShort=  0.000000 wLong=  0.330000 cFull=  0.190000 cShort=  0.000000 cLong=  0.460000
 NAtoms=   29 NActive=   29 NUniq=   29 SFac= 1.00D+00 NAtFMM=   60 NAOKFM=F Big=F
 Integral buffers will be    131072 words long.
 Raffenetti 2 integral format.
 Two-electron integral symmetry is turned on.
 R6Disp:  Grimme-D3(BJ) Dispersion energy=       -0.0261769003 Hartrees.
 Nuclear repulsion after empirical dispersion term =      900.4830696746 Hartrees.
 ------------------------------------------------------------------------------
 Polarizable Continuum Model (PCM)
 =================================
 Model                : PCM.
 Atomic radii         : UFF (Universal Force Field).
 Polarization charges : Total charges.
 Charge compensation  : None.
 Solution method      : On-the-fly selection.
 Cavity type          : Scaled VdW (van der Waals Surface) (Alpha=1.100).
 Cavity algorithm     : GePol (No added spheres)
                        Default sphere list used, NSphG=   29.
                        Lebedev-Laikov grids with approx.  5.0 points / Ang**2.
                        Smoothing algorithm: York/Karplus (Gamma=1.0000).
                        Polarization charges: spherical gaussians, with
                                              point-specific exponents (IZeta= 3).
                        Self-potential: point-specific (ISelfS= 7).
                        Self-field    : sphere-specific E.n sum rule (ISelfD= 2).
 Solvent              : TetraHydroFuran, Eps=   7.425700 Eps(inf)=   1.974025
 ------------------------------------------------------------------------------
 GePol: Number of generator spheres                  =      29
 GePol: Total number of spheres                      =      29
 GePol: Number of exposed spheres                    =      29 (100.00%)
 GePol: Number of points                             =    2112
 GePol: Average weight of points                     =       0.13
 GePol: Minimum weight of points                     =   0.80D-10
 GePol: Maximum weight of points                     =    0.20577
 GePol: Number of points with low weight             =     129
 GePol: Fraction of low-weight points (<1% of avg)   =       6.11%
 GePol: Cavity surface area                          =    268.463 Ang**2
 GePol: Cavity volume                                =    286.507 Ang**3
 Leave Link  301 at Fri Jan 23 22:44:16 2026, MaxMem=  2147483648 cpu:               0.6 elap:               0.0
 (Enter /data/home/wyx/g16/l302.exe)
 NPDir=0 NMtPBC=     1 NCelOv=     1 NCel=       1 NClECP=     1 NCelD=      1
         NCelK=      1 NCelE2=     1 NClLst=     1 CellRange=     0.0.
 One-electron integrals computed using PRISM.
 One-electron integral symmetry used in STVInt
 NBasis=   356 RedAO= T EigKep=  4.64D-05  NBF=   356
 NBsUse=   356 1.00D-06 EigRej= -1.00D+00 NBFU=   356
 Precomputing XC quadrature grid using
 IXCGrd= 4 IRadAn=           5 IRanWt=          -1 IRanGd=           0 AccXCQ= 0.00D+00.
 Generated NRdTot=       0 NPtTot=           0 NUsed=           0 NTot=          32
 NSgBfM=   366   366   366   366   366 MxSgAt=    29 MxSgA2=    29.
 Leave Link  302 at Fri Jan 23 22:44:16 2026, MaxMem=  2147483648 cpu:               3.1 elap:               0.2
 (Enter /data/home/wyx/g16/l303.exe)
 DipDrv:  MaxL=1.
 Leave Link  303 at Fri Jan 23 22:44:16 2026, MaxMem=  2147483648 cpu:               0.6 elap:               0.0
 (Enter /data/home/wyx/g16/l401.exe)
 Initial guess from the checkpoint file:  "DDL-S1-cLR-gs-9.chk"
 B after Tr=    -0.000000    0.000000    0.000000
         Rot=    1.000000    0.000000   -0.000000   -0.000000 Ang=   0.00 deg.
 Guess basis will be translated and rotated to current coordinates.
 JPrj=2 DoOrth=T DoCkMO=T.
 Leave Link  401 at Fri Jan 23 22:44:16 2026, MaxMem=  2147483648 cpu:               2.3 elap:               0.2
 (Enter /data/home/wyx/g16/l502.exe)
 Integral symmetry usage will be decided dynamically.
 Closed shell SCF:
 Using DIIS extrapolation, IDIIS=  1040.
 NGot=  2147483648 LenX=  2147200095 LenY=  2147062754
 Requested convergence on RMS density matrix=1.00D-08 within 128 cycles.
 Requested convergence on MAX density matrix=1.00D-06.
 Requested convergence on             energy=1.00D-06.
 No special actions if energy rises.
 Fock matrices will be formed incrementally for  20 cycles.

 Cycle   1  Pass 1  IDiag  1:
 FoFJK:  IHMeth= 1 ICntrl=       0 DoSepK=T KAlg= 0 I1Cent=           0 FoldK=F
 IRaf=         1 NMat=       1 IRICut=       1 DoRegI=T DoRafI=F ISym2E= 0 IDoP0=0 IntGTp=1.
 FoFCou: FMM=F IPFlag=           0 FMFlag=      100000 FMFlg1=           0
         NFxFlg=           0 DoJE=T BraDBF=F KetDBF=F FulRan=T
         wScrn=  0.000000 ICntrl=       500 IOpCl=  0 I1Cent=           0 NGrid=           0
         NMat0=    1 NMatS0=      1 NMatT0=    0 NMatD0=    1 NMtDS0=    0 NMtDT0=    0
 Symmetry not used in FoFCou.
 Inv3:  Mode=1 IEnd=    13381632.
 Iteration    1 A*A^-1 deviation from unit magnitude is 2.89D-15 for   1283.
 Iteration    1 A*A^-1 deviation from orthogonality  is 2.18D-15 for   1370      3.
 Iteration    1 A^-1*A deviation from unit magnitude is 2.89D-15 for   1283.
 Iteration    1 A^-1*A deviation from orthogonality  is 2.74D-15 for   1419    977.
 NEqPCM:  Using non-equilibrium solvation (IEInf=1, Eps=   7.4257, EpsInf=   1.9740)
 Inv3:  Mode=1 IEnd=    13381632.
 Iteration    1 A*A^-1 deviation from unit magnitude is 3.77D-15 for    859.
 Iteration    1 A*A^-1 deviation from orthogonality  is 1.55D-15 for   1709    532.
 Iteration    1 A^-1*A deviation from unit magnitude is 3.55D-15 for    859.
 Iteration    1 A^-1*A deviation from orthogonality  is 1.89D-15 for   1966    374.
 E= -633.325990934707    
 DIIS: error= 2.23D-04 at cycle   1 NSaved=   1.
 NSaved= 1 IEnMin= 1 EnMin= -633.325990934707     IErMin= 1 ErrMin= 2.23D-04
 ErrMax= 2.23D-04  0.00D+00 EMaxC= 1.00D-01 BMatC= 1.06D-05 BMatP= 1.06D-05
 IDIUse=3 WtCom= 9.98D-01 WtEn= 2.23D-03
 Coeff-Com:  0.100D+01
 Coeff-En:   0.100D+01
 Coeff:      0.100D+01
 Gap=     0.228 Goal=   None    Shift=    0.000
 RMSDP=1.41D-04 MaxDP=8.45D-03              OVMax= 3.05D-03

 Cycle   2  Pass 1  IDiag  1:
 RMSU=  1.40D-04    CP:  9.99D-01
 E= -633.326010558859     Delta-E=       -0.000019624152 Rises=F Damp=F
 DIIS: error= 1.16D-04 at cycle   2 NSaved=   2.
 NSaved= 2 IEnMin= 2 EnMin= -633.326010558859     IErMin= 2 ErrMin= 1.16D-04
 ErrMax= 1.16D-04  0.00D+00 EMaxC= 1.00D-01 BMatC= 6.60D-06 BMatP= 1.06D-05
 IDIUse=3 WtCom= 9.99D-01 WtEn= 1.16D-03
 Coeff-Com:  0.418D+00 0.582D+00
 Coeff-En:   0.000D+00 0.100D+01
 Coeff:      0.418D+00 0.582D+00
 Gap=     0.228 Goal=   None    Shift=    0.000
 RMSDP=2.63D-05 MaxDP=2.12D-03 DE=-1.96D-05 OVMax= 8.95D-04

 Cycle   3  Pass 1  IDiag  1:
 RMSU=  2.12D-05    CP:  1.00D+00  9.15D-01
 E= -633.326015994989     Delta-E=       -0.000005436131 Rises=F Damp=F
 DIIS: error= 8.42D-05 at cycle   3 NSaved=   3.
 NSaved= 3 IEnMin= 3 EnMin= -633.326015994989     IErMin= 3 ErrMin= 8.42D-05
 ErrMax= 8.42D-05  0.00D+00 EMaxC= 1.00D-01 BMatC= 1.48D-06 BMatP= 6.60D-06
 IDIUse=1 WtCom= 1.00D+00 WtEn= 0.00D+00
 Coeff-Com:  0.742D-01 0.305D+00 0.620D+00
 Coeff:      0.742D-01 0.305D+00 0.620D+00
 Gap=     0.228 Goal=   None    Shift=    0.000
 RMSDP=9.87D-06 MaxDP=4.93D-04 DE=-5.44D-06 OVMax= 4.84D-04

 Cycle   4  Pass 1  IDiag  1:
 RMSU=  9.12D-06    CP:  9.99D-01  9.14D-01  8.89D-01
 E= -633.326017175786     Delta-E=       -0.000001180797 Rises=F Damp=F
 DIIS: error= 1.74D-05 at cycle   4 NSaved=   4.
 NSaved= 4 IEnMin= 4 EnMin= -633.326017175786     IErMin= 4 ErrMin= 1.74D-05
 ErrMax= 1.74D-05  0.00D+00 EMaxC= 1.00D-01 BMatC= 1.22D-07 BMatP= 1.48D-06
 IDIUse=1 WtCom= 1.00D+00 WtEn= 0.00D+00
 Coeff-Com: -0.104D-01 0.563D-01 0.245D+00 0.709D+00
 Coeff:     -0.104D-01 0.563D-01 0.245D+00 0.709D+00
 Gap=     0.228 Goal=   None    Shift=    0.000
 RMSDP=4.81D-06 MaxDP=2.93D-04 DE=-1.18D-06 OVMax= 1.67D-04

 Cycle   5  Pass 1  IDiag  1:
 RMSU=  2.85D-06    CP:  1.00D+00  9.20D-01  1.04D+00  1.13D+00
 E= -633.326017284205     Delta-E=       -0.000000108419 Rises=F Damp=F
 DIIS: error= 5.74D-06 at cycle   5 NSaved=   5.
 NSaved= 5 IEnMin= 5 EnMin= -633.326017284205     IErMin= 5 ErrMin= 5.74D-06
 ErrMax= 5.74D-06  0.00D+00 EMaxC= 1.00D-01 BMatC= 2.12D-08 BMatP= 1.22D-07
 IDIUse=1 WtCom= 1.00D+00 WtEn= 0.00D+00
 Coeff-Com: -0.123D-01-0.176D-01 0.246D-01 0.317D+00 0.688D+00
 Coeff:     -0.123D-01-0.176D-01 0.246D-01 0.317D+00 0.688D+00
 Gap=     0.228 Goal=   None    Shift=    0.000
 RMSDP=1.35D-06 MaxDP=7.49D-05 DE=-1.08D-07 OVMax= 7.38D-05

 Cycle   6  Pass 1  IDiag  1:
 RMSU=  9.38D-07    CP:  1.00D+00  9.19D-01  1.07D+00  1.21D+00  1.07D+00
 E= -633.326017308624     Delta-E=       -0.000000024419 Rises=F Damp=F
 DIIS: error= 3.07D-06 at cycle   6 NSaved=   6.
 NSaved= 6 IEnMin= 6 EnMin= -633.326017308624     IErMin= 6 ErrMin= 3.07D-06
 ErrMax= 3.07D-06  0.00D+00 EMaxC= 1.00D-01 BMatC= 1.90D-09 BMatP= 2.12D-08
 IDIUse=1 WtCom= 1.00D+00 WtEn= 0.00D+00
 Coeff-Com: -0.233D-02-0.120D-01-0.124D-01 0.192D-01 0.217D+00 0.791D+00
 Coeff:     -0.233D-02-0.120D-01-0.124D-01 0.192D-01 0.217D+00 0.791D+00
 Gap=     0.228 Goal=   None    Shift=    0.000
 RMSDP=8.29D-07 MaxDP=6.02D-05 DE=-2.44D-08 OVMax= 4.85D-05

 Cycle   7  Pass 1  IDiag  1:
 RMSU=  3.40D-07    CP:  1.00D+00  9.18D-01  1.08D+00  1.26D+00  1.21D+00
                    CP:  1.26D+00
 E= -633.326017311747     Delta-E=       -0.000000003123 Rises=F Damp=F
 DIIS: error= 1.65D-06 at cycle   7 NSaved=   7.
 NSaved= 7 IEnMin= 7 EnMin= -633.326017311747     IErMin= 7 ErrMin= 1.65D-06
 ErrMax= 1.65D-06  0.00D+00 EMaxC= 1.00D-01 BMatC= 7.31D-10 BMatP= 1.90D-09
 IDIUse=1 WtCom= 1.00D+00 WtEn= 0.00D+00
 Coeff-Com:  0.907D-03-0.394D-02-0.791D-02-0.444D-01-0.123D-01 0.421D+00
 Coeff-Com:  0.647D+00
 Coeff:      0.907D-03-0.394D-02-0.791D-02-0.444D-01-0.123D-01 0.421D+00
 Coeff:      0.647D+00
 Gap=     0.228 Goal=   None    Shift=    0.000
 RMSDP=2.77D-07 MaxDP=1.82D-05 DE=-3.12D-09 OVMax= 2.27D-05

 Cycle   8  Pass 1  IDiag  1:
 RMSU=  1.33D-07    CP:  1.00D+00  9.17D-01  1.09D+00  1.27D+00  1.26D+00
                    CP:  1.40D+00  1.04D+00
 E= -633.326017312813     Delta-E=       -0.000000001066 Rises=F Damp=F
 DIIS: error= 6.90D-07 at cycle   8 NSaved=   8.
 NSaved= 8 IEnMin= 8 EnMin= -633.326017312813     IErMin= 8 ErrMin= 6.90D-07
 ErrMax= 6.90D-07  0.00D+00 EMaxC= 1.00D-01 BMatC= 6.63D-11 BMatP= 7.31D-10
 IDIUse=1 WtCom= 1.00D+00 WtEn= 0.00D+00
 Coeff-Com:  0.722D-03 0.163D-03 0.832D-03-0.168D-01-0.477D-01-0.169D-01
 Coeff-Com:  0.186D+00 0.894D+00
 Coeff:      0.722D-03 0.163D-03 0.832D-03-0.168D-01-0.477D-01-0.169D-01
 Coeff:      0.186D+00 0.894D+00
 Gap=     0.228 Goal=   None    Shift=    0.000
 RMSDP=1.71D-07 MaxDP=8.97D-06 DE=-1.07D-09 OVMax= 1.37D-05

 Cycle   9  Pass 1  IDiag  1:
 RMSU=  6.70D-08    CP:  1.00D+00  9.17D-01  1.09D+00  1.27D+00  1.28D+00
                    CP:  1.51D+00  1.24D+00  1.16D+00
 E= -633.326017312988     Delta-E=       -0.000000000175 Rises=F Damp=F
 DIIS: error= 2.90D-07 at cycle   9 NSaved=   9.
 NSaved= 9 IEnMin= 9 EnMin= -633.326017312988     IErMin= 9 ErrMin= 2.90D-07
 ErrMax= 2.90D-07  0.00D+00 EMaxC= 1.00D-01 BMatC= 9.16D-12 BMatP= 6.63D-11
 IDIUse=1 WtCom= 1.00D+00 WtEn= 0.00D+00
 Coeff-Com:  0.125D-03 0.459D-03 0.155D-02 0.141D-02-0.149D-01-0.697D-01
 Coeff-Com: -0.319D-01 0.304D+00 0.809D+00
 Coeff:      0.125D-03 0.459D-03 0.155D-02 0.141D-02-0.149D-01-0.697D-01
 Coeff:     -0.319D-01 0.304D+00 0.809D+00
 Gap=     0.228 Goal=   None    Shift=    0.000
 RMSDP=5.15D-08 MaxDP=2.10D-06 DE=-1.75D-10 OVMax= 5.14D-06

 Cycle  10  Pass 1  IDiag  1:
 RMSU=  2.20D-08    CP:  1.00D+00  9.17D-01  1.09D+00  1.27D+00  1.28D+00
                    CP:  1.54D+00  1.31D+00  1.28D+00  1.22D+00
 E= -633.326017313017     Delta-E=       -0.000000000029 Rises=F Damp=F
 DIIS: error= 1.06D-07 at cycle  10 NSaved=  10.
 NSaved=10 IEnMin=10 EnMin= -633.326017313017     IErMin=10 ErrMin= 1.06D-07
 ErrMax= 1.06D-07  0.00D+00 EMaxC= 1.00D-01 BMatC= 1.77D-12 BMatP= 9.16D-12
 IDIUse=1 WtCom= 1.00D+00 WtEn= 0.00D+00
 Coeff-Com: -0.483D-04 0.198D-03 0.429D-03 0.312D-02 0.404D-03-0.274D-01
 Coeff-Com: -0.377D-01-0.173D-02 0.314D+00 0.748D+00
 Coeff:     -0.483D-04 0.198D-03 0.429D-03 0.312D-02 0.404D-03-0.274D-01
 Coeff:     -0.377D-01-0.173D-02 0.314D+00 0.748D+00
 Gap=     0.228 Goal=   None    Shift=    0.000
 RMSDP=2.38D-08 MaxDP=1.24D-06 DE=-2.91D-11 OVMax= 1.90D-06

 Cycle  11  Pass 1  IDiag  1:
 RMSU=  1.01D-08    CP:  1.00D+00  9.17D-01  1.09D+00  1.27D+00  1.28D+00
                    CP:  1.55D+00  1.34D+00  1.31D+00  1.42D+00  1.20D+00
 E= -633.326017313017     Delta-E=        0.000000000000 Rises=F Damp=F
 DIIS: error= 4.78D-08 at cycle  11 NSaved=  11.
 NSaved=11 IEnMin=10 EnMin= -633.326017313017     IErMin=11 ErrMin= 4.78D-08
 ErrMax= 4.78D-08  0.00D+00 EMaxC= 1.00D-01 BMatC= 5.81D-13 BMatP= 1.77D-12
 IDIUse=1 WtCom= 1.00D+00 WtEn= 0.00D+00
 Coeff-Com: -0.468D-04 0.407D-04-0.137D-03 0.135D-02 0.331D-02 0.103D-02
 Coeff-Com: -0.108D-01-0.616D-01-0.888D-02 0.399D+00 0.677D+00
 Coeff:     -0.468D-04 0.407D-04-0.137D-03 0.135D-02 0.331D-02 0.103D-02
 Coeff:     -0.108D-01-0.616D-01-0.888D-02 0.399D+00 0.677D+00
 Gap=     0.228 Goal=   None    Shift=    0.000
 RMSDP=9.53D-09 MaxDP=4.36D-07 DE= 2.27D-13 OVMax= 7.69D-07

 Error on total polarization charges =  0.00921
 SCF Done:  E(RCAM-B3LYP) =  -633.326017313     A.U. after   11 cycles
            NFock= 11  Conv=0.95D-08     -V/T= 2.0041
 KE= 6.307287768525D+02 PE=-3.276981397177D+03 EE= 1.112443533336D+03
 Leave Link  502 at Fri Jan 23 22:45:00 2026, MaxMem=  2147483648 cpu:             690.6 elap:              43.8
 (Enter /data/home/wyx/g16/l601.exe)
 Copying SCF densities to generalized density rwf, IOpCl= 0 IROHF=0.

 **********************************************************************

            Population analysis using the SCF density.

 **********************************************************************

 Orbital symmetries:
       Occupied  (A) (A) (A) (A) (A) (A) (A) (A) (A) (A) (A) (A)
                 (A) (A) (A) (A) (A) (A) (A) (A) (A) (A) (A) (A)
                 (A) (A) (A) (A) (A) (A) (A) (A) (A) (A) (A) (A)
                 (A) (A) (A) (A) (A) (A) (A) (A) (A) (A) (A) (A)
                 (A) (A) (A) (A)
       Virtual   (A) (A) (A) (A) (A) (A) (A) (A) (A) (A) (A) (A)
                 (A) (A) (A) (A) (A) (A) (A) (A) (A) (A) (A) (A)
                 (A) (A) (A) (A) (A) (A) (A) (A) (A) (A) (A) (A)
                 (A) (A) (A) (A) (A) (A) (A) (A) (A) (A) (A) (A)
                 (A) (A) (A) (A) (A) (A) (A) (A) (A) (A) (A) (A)
                 (A) (A) (A) (A) (A) (A) (A) (A) (A) (A) (A) (A)
                 (A) (A) (A) (A) (A) (A) (A) (A) (A) (A) (A) (A)
                 (A) (A) (A) (A) (A) (A) (A) (A) (A) (A) (A) (A)
                 (A) (A) (A) (A) (A) (A) (A) (A) (A) (A) (A) (A)
                 (A) (A) (A) (A) (A) (A) (A) (A) (A) (A) (A) (A)
                 (A) (A) (A) (A) (A) (A) (A) (A) (A) (A) (A) (A)
                 (A) (A) (A) (A) (A) (A) (A) (A) (A) (A) (A) (A)
                 (A) (A) (A) (A) (A) (A) (A) (A) (A) (A) (A) (A)
                 (A) (A) (A) (A) (A) (A) (A) (A) (A) (A) (A) (A)
                 (A) (A) (A) (A) (A) (A) (A) (A) (A) (A) (A) (A)
                 (A) (A) (A) (A) (A) (A) (A) (A) (A) (A) (A) (A)
                 (A) (A) (A) (A) (A) (A) (A) (A) (A) (A) (A) (A)
                 (A) (A) (A) (A) (A) (A) (A) (A) (A) (A) (A) (A)
                 (A) (A) (A) (A) (A) (A) (A) (A) (A) (A) (A) (A)
                 (A) (A) (A) (A) (A) (A) (A) (A) (A) (A) (A) (A)
                 (A) (A) (A) (A) (A) (A) (A) (A) (A) (A) (A) (A)
                 (A) (A) (A) (A) (A) (A) (A) (A) (A) (A) (A) (A)
                 (A) (A) (A) (A) (A) (A) (A) (A) (A) (A) (A) (A)
                 (A) (A) (A) (A) (A) (A) (A) (A) (A) (A) (A) (A)
                 (A) (A) (A) (A) (A) (A) (A) (A) (A) (A) (A) (A)
                 (A) (A) (A) (A)
 The electronic state is 1-A.
 Alpha  occ. eigenvalues --  -19.17822 -19.17010 -14.44293 -10.33374 -10.32758
 Alpha  occ. eigenvalues --  -10.32334 -10.31661 -10.26047 -10.25115 -10.24787
 Alpha  occ. eigenvalues --  -10.24421 -10.24383 -10.24338 -10.23493  -1.11728
 Alpha  occ. eigenvalues --   -1.11170  -1.07895  -0.91298  -0.90268  -0.83890
 Alpha  occ. eigenvalues --   -0.82582  -0.81685  -0.78487  -0.73810  -0.71615
 Alpha  occ. eigenvalues --   -0.68572  -0.61546  -0.58216  -0.56874  -0.55092
 Alpha  occ. eigenvalues --   -0.54512  -0.53964  -0.52538  -0.51850  -0.50811
 Alpha  occ. eigenvalues --   -0.49847  -0.49492  -0.49200  -0.48624  -0.48016
 Alpha  occ. eigenvalues --   -0.46988  -0.45206  -0.45155  -0.43594  -0.43076
 Alpha  occ. eigenvalues --   -0.42273  -0.42067  -0.41718  -0.32642  -0.32164
 Alpha  occ. eigenvalues --   -0.31093  -0.25471
 Alpha virt. eigenvalues --   -0.02672   0.02640   0.06348   0.08224   0.08465
 Alpha virt. eigenvalues --    0.09916   0.10819   0.11859   0.12626   0.13524
 Alpha virt. eigenvalues --    0.14090   0.14856   0.15679   0.16287   0.16960
 Alpha virt. eigenvalues --    0.17608   0.17820   0.18077   0.18245   0.19256
 Alpha virt. eigenvalues --    0.19962   0.22170   0.22933   0.23545   0.23826
 Alpha virt. eigenvalues --    0.23891   0.24841   0.25693   0.26199   0.26686
 Alpha virt. eigenvalues --    0.27133   0.27853   0.28756   0.29159   0.30209
 Alpha virt. eigenvalues --    0.31770   0.32054   0.32557   0.33613   0.34541
 Alpha virt. eigenvalues --    0.35106   0.36086   0.36776   0.38239   0.38643
 Alpha virt. eigenvalues --    0.39909   0.41154   0.41604   0.42149   0.42657
 Alpha virt. eigenvalues --    0.44093   0.44660   0.45571   0.46170   0.46404
 Alpha virt. eigenvalues --    0.47312   0.47818   0.48214   0.48308   0.49116
 Alpha virt. eigenvalues --    0.49552   0.50660   0.51035   0.51503   0.51724
 Alpha virt. eigenvalues --    0.52839   0.53103   0.53475   0.54053   0.54315
 Alpha virt. eigenvalues --    0.54580   0.55696   0.56202   0.56707   0.58431
 Alpha virt. eigenvalues --    0.58629   0.59435   0.61060   0.61233   0.62989
 Alpha virt. eigenvalues --    0.63719   0.65727   0.66462   0.66625   0.67980
 Alpha virt. eigenvalues --    0.68690   0.70010   0.71271   0.72120   0.72683
 Alpha virt. eigenvalues --    0.73304   0.74173   0.74864   0.75989   0.77923
 Alpha virt. eigenvalues --    0.78819   0.79997   0.82787   0.85605   0.86431
 Alpha virt. eigenvalues --    0.90176   0.94265   1.01031   1.02750   1.23419
 Alpha virt. eigenvalues --    1.25146   1.27123   1.28125   1.29509   1.31241
 Alpha virt. eigenvalues --    1.32718   1.32887   1.34148   1.34994   1.36159
 Alpha virt. eigenvalues --    1.36589   1.37598   1.38398   1.39073   1.39941
 Alpha virt. eigenvalues --    1.39992   1.40667   1.40859   1.41446   1.41865
 Alpha virt. eigenvalues --    1.43564   1.44053   1.44390   1.45268   1.47380
 Alpha virt. eigenvalues --    1.48190   1.49676   1.49757   1.50447   1.51165
 Alpha virt. eigenvalues --    1.51537   1.52592   1.53062   1.54965   1.58101
 Alpha virt. eigenvalues --    1.58738   1.60702   1.60804   1.61448   1.62536
 Alpha virt. eigenvalues --    1.62725   1.63438   1.64240   1.64728   1.65943
 Alpha virt. eigenvalues --    1.66816   1.67236   1.67651   1.68322   1.68492
 Alpha virt. eigenvalues --    1.68980   1.69963   1.70270   1.71542   1.72405
 Alpha virt. eigenvalues --    1.73915   1.75268   1.76222   1.76691   1.78848
 Alpha virt. eigenvalues --    1.80944   1.83042   1.84198   1.86030   1.86637
 Alpha virt. eigenvalues --    1.86873   1.87914   1.88668   1.88907   1.90629
 Alpha virt. eigenvalues --    1.91294   1.94692   1.95234   1.98901   1.99862
 Alpha virt. eigenvalues --    2.01355   2.03949   2.05233   2.06848   2.09733
 Alpha virt. eigenvalues --    2.11061   2.12582   2.15200   2.17427   2.19772
 Alpha virt. eigenvalues --    2.20326   2.21372   2.22039   2.23071   2.26287
 Alpha virt. eigenvalues --    2.27323   2.27614   2.29387   2.31318   2.32268
 Alpha virt. eigenvalues --    2.33800   2.34521   2.36903   2.37846   2.38599
 Alpha virt. eigenvalues --    2.39656   2.40398   2.41704   2.43310   2.45087
 Alpha virt. eigenvalues --    2.46185   2.47975   2.50102   2.50773   2.51569
 Alpha virt. eigenvalues --    2.52278   2.54122   2.55062   2.56793   2.58095
 Alpha virt. eigenvalues --    2.59023   2.60707   2.61642   2.62682   2.63205
 Alpha virt. eigenvalues --    2.64690   2.65932   2.66957   2.67417   2.68792
 Alpha virt. eigenvalues --    2.71975   2.72093   2.73280   2.74211   2.75581
 Alpha virt. eigenvalues --    2.75895   2.76807   2.77428   2.78073   2.79421
 Alpha virt. eigenvalues --    2.80762   2.81961   2.83386   2.84065   2.84502
 Alpha virt. eigenvalues --    2.85672   2.86495   2.88504   2.89887   2.91956
 Alpha virt. eigenvalues --    2.97688   2.99804   3.00858   3.05620   3.10905
 Alpha virt. eigenvalues --    3.12432   3.15581   3.17212   3.18338   3.21364
 Alpha virt. eigenvalues --    3.21536   3.23478   3.24584   3.26113   3.27244
 Alpha virt. eigenvalues --    3.27780   3.30061   3.33441   3.34670   3.36659
 Alpha virt. eigenvalues --    3.37598   3.38863   3.39918   3.40341   3.42091
 Alpha virt. eigenvalues --    3.42453   3.44666   3.45504   3.47572   3.48360
 Alpha virt. eigenvalues --    3.49567   3.49798   3.55439   3.58650   3.60131
 Alpha virt. eigenvalues --    3.60904   3.90825   4.00442   4.33959   4.36636
 Alpha virt. eigenvalues --   21.65787  21.80444  22.08467  22.10914  22.11938
 Alpha virt. eigenvalues --   22.15130  22.15346  22.18946  22.20290  22.24952
 Alpha virt. eigenvalues --   22.29226  31.92432  43.63573  43.66327
          Condensed to atoms (all electrons):
               1          2          3          4          5          6
     1  O    7.934164   0.000000  -0.000212   0.000019   0.017506   0.012902
     2  O    0.000000   7.974767   0.000434   0.000024  -0.198123   0.001129
     3  N   -0.000212   0.000434   6.379685   0.371557  -0.116589   0.328536
     4  H    0.000019   0.000024   0.371557   0.410699   0.016756  -0.046755
     5  C    0.017506  -0.198123  -0.116589   0.016756   7.042258  -0.076629
     6  C    0.012902   0.001129   0.328536  -0.046755  -0.076629   5.591351
     7  C   -0.000273  -0.041511   0.386928  -0.037976   0.430169  -0.107209
     8  C   -0.000436   0.710109   0.004502  -0.000768  -0.285395   0.029809
     9  C   -0.016927   0.022121   0.012660  -0.000020  -0.588567  -0.076805
    10  H    0.012279  -0.000015  -0.001384   0.000019  -0.118317   0.027607
    11  H    0.005386   0.000121   0.003794   0.000025  -0.035953  -0.018522
    12  C   -0.225881  -0.002664  -0.087787   0.014879   0.178317  -0.127977
    13  C    0.717366  -0.000022   0.001153   0.000474   0.078364   0.153547
    14  C   -0.000007  -0.007084  -0.034546  -0.010018  -0.082327   0.011297
    15  H   -0.000000   0.004276   0.004371   0.001785   0.019020   0.006473
    16  H    0.000000   0.002024   0.000507   0.000783  -0.007240  -0.001016
    17  H   -0.000000   0.002371  -0.002601   0.000928  -0.005877  -0.001725
    18  C    0.000078  -0.104652  -0.000560   0.000020  -0.267037   0.000420
    19  H   -0.000002   0.008526   0.000003  -0.000001   0.024265   0.000025
    20  H    0.000107   0.003870   0.000121   0.000001   0.044555  -0.001192
    21  H    0.000007   0.000948   0.000013  -0.000001   0.003453   0.000229
    22  C   -0.106796   0.000000  -0.000094   0.000120   0.004182  -0.014372
    23  H    0.001339   0.000000  -0.000011  -0.000014  -0.000040   0.010051
    24  H    0.004874  -0.000000   0.000042  -0.000054  -0.000635  -0.030565
    25  H    0.007284   0.000000   0.000028  -0.000002  -0.000153  -0.001114
    26  C    0.000851   0.000007  -0.028049  -0.006322   0.000440   0.179855
    27  H   -0.000050  -0.000000  -0.002480   0.000456   0.000401  -0.035031
    28  H   -0.000244  -0.000000   0.002096   0.000819  -0.000016  -0.046725
    29  H    0.000025  -0.000000   0.001454   0.001427  -0.000408  -0.049459
               7          8          9         10         11         12
     1  O   -0.000273  -0.000436  -0.016927   0.012279   0.005386  -0.225881
     2  O   -0.041511   0.710109   0.022121  -0.000015   0.000121  -0.002664
     3  N    0.386928   0.004502   0.012660  -0.001384   0.003794  -0.087787
     4  H   -0.037976  -0.000768  -0.000020   0.000019   0.000025   0.014879
     5  C    0.430169  -0.285395  -0.588567  -0.118317  -0.035953   0.178317
     6  C   -0.107209   0.029809  -0.076805   0.027607  -0.018522  -0.127977
     7  C    5.399905  -0.210125  -0.190053   0.018003  -0.005977   0.009415
     8  C   -0.210125   5.373517   0.140490  -0.009637  -0.003451  -0.040862
     9  C   -0.190053   0.140490   6.337603   0.539485   0.398422  -0.060145
    10  H    0.018003  -0.009637   0.539485   0.517078  -0.040586  -0.109723
    11  H   -0.005977  -0.003451   0.398422  -0.040586   0.559682  -0.013719
    12  C    0.009415  -0.040862  -0.060145  -0.109723  -0.013719   7.321639
    13  C    0.015200  -0.007527  -0.257651  -0.001447  -0.002935  -0.440577
    14  C    0.274649  -0.034335   0.009144   0.000563  -0.001180  -0.002989
    15  H   -0.080441   0.005537   0.000318  -0.000004   0.000055  -0.001382
    16  H   -0.026682  -0.007192  -0.000475  -0.000055   0.000191   0.000040
    17  H   -0.021900  -0.002026   0.000779   0.000057  -0.000065   0.000653
    18  C    0.000526   0.322004   0.003250   0.008144  -0.010657  -0.003136
    19  H    0.000345  -0.052940  -0.001006   0.000599   0.000011  -0.000179
    20  H    0.002519  -0.067249  -0.010093  -0.006166   0.002591   0.007065
    21  H    0.000167  -0.024472  -0.009209  -0.001696   0.000841  -0.003074
    22  C    0.000062  -0.000071   0.005958   0.000218   0.002195  -0.262307
    23  H    0.000005   0.000003  -0.002176  -0.000122   0.000162  -0.010862
    24  H   -0.000007  -0.000002   0.003275  -0.000002  -0.000161   0.066661
    25  H    0.000009   0.000003   0.000264  -0.000101  -0.000062   0.021822
    26  C    0.002932   0.000650   0.021683   0.000065  -0.000738  -0.080169
    27  H   -0.000801  -0.000011  -0.000284   0.000043  -0.000018  -0.018587
    28  H   -0.000733   0.000002  -0.000445   0.000008  -0.000106  -0.006987
    29  H    0.003345  -0.000006  -0.000569  -0.000012   0.000097   0.022700
              13         14         15         16         17         18
     1  O    0.717366  -0.000007  -0.000000   0.000000  -0.000000   0.000078
     2  O   -0.000022  -0.007084   0.004276   0.002024   0.002371  -0.104652
     3  N    0.001153  -0.034546   0.004371   0.000507  -0.002601  -0.000560
     4  H    0.000474  -0.010018   0.001785   0.000783   0.000928   0.000020
     5  C    0.078364  -0.082327   0.019020  -0.007240  -0.005877  -0.267037
     6  C    0.153547   0.011297   0.006473  -0.001016  -0.001725   0.000420
     7  C    0.015200   0.274649  -0.080441  -0.026682  -0.021900   0.000526
     8  C   -0.007527  -0.034335   0.005537  -0.007192  -0.002026   0.322004
     9  C   -0.257651   0.009144   0.000318  -0.000475   0.000779   0.003250
    10  H   -0.001447   0.000563  -0.000004  -0.000055   0.000057   0.008144
    11  H   -0.002935  -0.001180   0.000055   0.000191  -0.000065  -0.010657
    12  C   -0.440577  -0.002989  -0.001382   0.000040   0.000653  -0.003136
    13  C    5.508125   0.000031  -0.000031  -0.000003  -0.000012   0.000869
    14  C    0.000031   5.049298   0.388770   0.420150   0.408155   0.001505
    15  H   -0.000031   0.388770   0.579881  -0.027830  -0.026213   0.000266
    16  H   -0.000003   0.420150  -0.027830   0.509688  -0.026594  -0.000196
    17  H   -0.000012   0.408155  -0.026213  -0.026594   0.509794   0.000008
    18  C    0.000869   0.001505   0.000266  -0.000196   0.000008   5.339490
    19  H   -0.000013   0.000054  -0.000005   0.000034  -0.000028   0.393746
    20  H    0.000659   0.000055  -0.000016  -0.000035   0.000003   0.380738
    21  H   -0.000111  -0.000250  -0.000006   0.000019  -0.000008   0.397696
    22  C    0.287613  -0.000020   0.000002  -0.000000   0.000000   0.000030
    23  H   -0.023231  -0.000001   0.000000  -0.000000   0.000000  -0.000002
    24  H   -0.095195   0.000001   0.000000   0.000000   0.000000   0.000002
    25  H   -0.038785   0.000000   0.000000   0.000000  -0.000000  -0.000001
    26  C   -0.055081   0.001052   0.000154   0.000044  -0.000133   0.000018
    27  H    0.006490  -0.000113  -0.000001   0.000004  -0.000008  -0.000001
    28  H   -0.003895   0.000083  -0.000011  -0.000002   0.000001  -0.000000
    29  H   -0.000890  -0.000234   0.000116  -0.000003   0.000002   0.000000
              19         20         21         22         23         24
     1  O   -0.000002   0.000107   0.000007  -0.106796   0.001339   0.004874
     2  O    0.008526   0.003870   0.000948   0.000000   0.000000  -0.000000
     3  N    0.000003   0.000121   0.000013  -0.000094  -0.000011   0.000042
     4  H   -0.000001   0.000001  -0.000001   0.000120  -0.000014  -0.000054
     5  C    0.024265   0.044555   0.003453   0.004182  -0.000040  -0.000635
     6  C    0.000025  -0.001192   0.000229  -0.014372   0.010051  -0.030565
     7  C    0.000345   0.002519   0.000167   0.000062   0.000005  -0.000007
     8  C   -0.052940  -0.067249  -0.024472  -0.000071   0.000003  -0.000002
     9  C   -0.001006  -0.010093  -0.009209   0.005958  -0.002176   0.003275
    10  H    0.000599  -0.006166  -0.001696   0.000218  -0.000122  -0.000002
    11  H    0.000011   0.002591   0.000841   0.002195   0.000162  -0.000161
    12  C   -0.000179   0.007065  -0.003074  -0.262307  -0.010862   0.066661
    13  C   -0.000013   0.000659  -0.000111   0.287613  -0.023231  -0.095195
    14  C    0.000054   0.000055  -0.000250  -0.000020  -0.000001   0.000001
    15  H   -0.000005  -0.000016  -0.000006   0.000002   0.000000   0.000000
    16  H    0.000034  -0.000035   0.000019  -0.000000  -0.000000   0.000000
    17  H   -0.000028   0.000003  -0.000008   0.000000   0.000000   0.000000
    18  C    0.393746   0.380738   0.397696   0.000030  -0.000002   0.000002
    19  H    0.507553  -0.023534  -0.010119  -0.000000   0.000000   0.000000
    20  H   -0.023534   0.536790  -0.024763   0.000023  -0.000000  -0.000000
    21  H   -0.010119  -0.024763   0.497778  -0.000013   0.000000  -0.000000
    22  C   -0.000000   0.000023  -0.000013   5.427637   0.401133   0.396664
    23  H    0.000000  -0.000000   0.000000   0.401133   0.495930  -0.027572
    24  H    0.000000  -0.000000  -0.000000   0.396664  -0.027572   0.545148
    25  H   -0.000000  -0.000000   0.000000   0.384115  -0.007936  -0.022223
    26  C    0.000000  -0.000016   0.000004  -0.030290  -0.012872   0.016436
    27  H    0.000000  -0.000000  -0.000000  -0.010853   0.001028  -0.001639
    28  H   -0.000000  -0.000000   0.000000   0.006650  -0.000338  -0.008867
    29  H    0.000000   0.000000  -0.000000   0.001969   0.000201   0.000670
              25         26         27         28         29
     1  O    0.007284   0.000851  -0.000050  -0.000244   0.000025
     2  O    0.000000   0.000007  -0.000000  -0.000000  -0.000000
     3  N    0.000028  -0.028049  -0.002480   0.002096   0.001454
     4  H   -0.000002  -0.006322   0.000456   0.000819   0.001427
     5  C   -0.000153   0.000440   0.000401  -0.000016  -0.000408
     6  C   -0.001114   0.179855  -0.035031  -0.046725  -0.049459
     7  C    0.000009   0.002932  -0.000801  -0.000733   0.003345
     8  C    0.000003   0.000650  -0.000011   0.000002  -0.000006
     9  C    0.000264   0.021683  -0.000284  -0.000445  -0.000569
    10  H   -0.000101   0.000065   0.000043   0.000008  -0.000012
    11  H   -0.000062  -0.000738  -0.000018  -0.000106   0.000097
    12  C    0.021822  -0.080169  -0.018587  -0.006987   0.022700
    13  C   -0.038785  -0.055081   0.006490  -0.003895  -0.000890
    14  C    0.000000   0.001052  -0.000113   0.000083  -0.000234
    15  H    0.000000   0.000154  -0.000001  -0.000011   0.000116
    16  H    0.000000   0.000044   0.000004  -0.000002  -0.000003
    17  H   -0.000000  -0.000133  -0.000008   0.000001   0.000002
    18  C   -0.000001   0.000018  -0.000001  -0.000000   0.000000
    19  H   -0.000000   0.000000   0.000000  -0.000000   0.000000
    20  H   -0.000000  -0.000016  -0.000000  -0.000000   0.000000
    21  H    0.000000   0.000004  -0.000000   0.000000  -0.000000
    22  C    0.384115  -0.030290  -0.010853   0.006650   0.001969
    23  H   -0.007936  -0.012872   0.001028  -0.000338   0.000201
    24  H   -0.022223   0.016436  -0.001639  -0.008867   0.000670
    25  H    0.493884   0.001869   0.000116   0.000733  -0.000040
    26  C    0.001869   5.254624   0.428645   0.428974   0.390381
    27  H    0.000116   0.428645   0.483031  -0.026917  -0.018182
    28  H    0.000733   0.428974  -0.026917   0.510403  -0.026009
    29  H   -0.000040   0.390381  -0.018182  -0.026009   0.518232
 Mulliken charges:
               1
     1  O   -0.363360
     2  O   -0.376652
     3  N   -0.223573
     4  H    0.281144
     5  C   -0.076380
     6  C    0.281868
     7  C    0.179510
     8  C    0.159880
     9  C   -0.281025
    10  H    0.165100
    11  H    0.160557
    12  C   -0.144181
    13  C    0.157513
    14  C   -0.391706
    15  H    0.124916
    16  H    0.163842
    17  H    0.164442
    18  C   -0.462568
    19  H    0.152668
    20  H    0.153968
    21  H    0.172566
    22  C   -0.493754
    23  H    0.175324
    24  H    0.153148
    25  H    0.160291
    26  C   -0.515014
    27  H    0.194762
    28  H    0.171522
    29  H    0.155194
 Sum of Mulliken charges =  -0.00000
 Mulliken charges with hydrogens summed into heavy atoms:
               1
     1  O   -0.363360
     2  O   -0.376652
     3  N    0.057571
     5  C   -0.076380
     6  C    0.281868
     7  C    0.179510
     8  C    0.159880
     9  C    0.044631
    12  C   -0.144181
    13  C    0.157513
    14  C    0.061494
    18  C    0.016634
    22  C   -0.004991
    26  C    0.006464
 Electronic spatial extent (au):  <R**2>=           3193.2752
 Charge=              0.0000 electrons
 Dipole moment (field-independent basis, Debye):
    X=              3.8782    Y=              7.3007    Z=             -0.1112  Tot=              8.2675
 Quadrupole moment (field-independent basis, Debye-Ang):
   XX=            -98.4450   YY=            -78.4227   ZZ=            -84.8929
   XY=             12.2942   XZ=              4.7373   YZ=             -1.8732
 Traceless Quadrupole moment (field-independent basis, Debye-Ang):
   XX=            -11.1915   YY=              8.8308   ZZ=              2.3607
   XY=             12.2942   XZ=              4.7373   YZ=             -1.8732
 Octapole moment (field-independent basis, Debye-Ang**2):
  XXX=            107.0411  YYY=             62.9953  ZZZ=              1.5419  XYY=            -34.4805
  XXY=             30.7203  XXZ=             -7.6162  XZZ=              1.2649  YZZ=             -1.4250
  YYZ=              3.8387  XYZ=             -5.2008
 Hexadecapole moment (field-independent basis, Debye-Ang**3):
 XXXX=          -3052.3758 YYYY=          -1283.3932 ZZZZ=           -149.1868 XXXY=             33.7735
 XXXZ=             53.3339 YYYX=             86.8086 YYYZ=            -20.5132 ZZZX=             -3.3270
 ZZZY=              4.0713 XXYY=           -691.9273 XXZZ=           -482.8430 YYZZ=           -243.6899
 XXYZ=             -8.3161 YYXZ=              8.1657 ZZXY=             -0.8428
 N-N= 9.004830696746D+02 E-N=-3.276981393258D+03  KE= 6.307287768525D+02
 No NMR shielding tensors so no spin-rotation constants.
 Leave Link  601 at Fri Jan 23 22:45:01 2026, MaxMem=  2147483648 cpu:               1.8 elap:               0.1
 (Enter /data/home/wyx/g16/l9999.exe)
 1\1\GINC-CN012\SP\RCAM-B3LYP\TZVP\C11H15N1O2\WYX\23-Jan-2026\0\\#p CAM
 -B3LYP TZVP em=gd3bj scrf=(Solvent=TetraHydroFuran,NonEquilibrium=Read
 ) Geom=Check Guess=Read\\Title Card Required\\0,1\O,0,2.837701,-1.5687
 94,0.099575\O,0,-3.424887,-1.633626,-0.023394\N,0,-0.648557,1.514105,-
 0.28348\H,0,-0.958923,2.472813,-0.335497\C,0,-1.242714,-0.759619,-0.21
 3198\C,0,0.69099,1.315312,-0.068392\C,0,-1.623381,0.560964,-0.267788\C
 ,0,-2.218501,-1.836292,-0.137758\C,0,0.208122,-1.098186,-0.27883\H,0,0
 .440051,-1.925951,0.394092\H,0,0.454774,-1.511322,-1.26971\C,0,1.14959
 7,0.024304,0.011447\C,0,2.515362,-0.397443,0.300322\C,0,-3.011666,1.09
 6031,-0.321259\H,0,-3.013226,2.16616,-0.520073\H,0,-3.59624,0.598471,-
 1.087329\H,0,-3.532545,0.922923,0.6165\C,0,-1.722039,-3.255398,-0.1883
 7\H,0,-2.554606,-3.925421,-0.369789\H,0,-0.968739,-3.410473,-0.955159\
 H,0,-1.267388,-3.534461,0.760825\C,0,3.547711,0.53628,0.883789\H,0,4.0
 58453,1.084444,0.089786\H,0,3.127949,1.257926,1.579702\H,0,4.289324,-0
 .072038,1.396503\C,0,1.467824,2.586963,0.029545\H,0,1.609693,2.894746,
 1.065273\H,0,2.444785,2.503228,-0.430565\H,0,0.941078,3.394356,-0.4767
 67\\Version=ES64L-G16RevA.03\State=1-A\HF=-633.3260173\RMSD=9.526e-09\
 Dipole=0.4777149,3.2171405,-0.0429654\Quadrupole=-13.0880407,10.666838
 4,2.4212023,2.4272076,2.0590446,0.0019138\PG=C01 [X(C11H15N1O2)]\\@


 WE STILL HAVE JUDGEMENT HERE,
 THAT WE TEACH BUT BLOODY INSTRUCTIONS,
 WHICH, BEING TAUGHT,
 RETURN TO PLAGUE THE INVENTOR.
           MACBETH ACT I, SCENE VII
 Job cpu time:       0 days  0 hours 11 minutes 41.1 seconds.
 Elapsed time:       0 days  0 hours  0 minutes 44.7 seconds.
 File lengths (MBytes):  RWF=    342 Int=      0 D2E=      0 Chk=     67 Scr=      1
 Normal termination of Gaussian 16 at Fri Jan 23 22:45:01 2026.
