 Entering Gaussian System, Link 0=g16
 Input=DDL-LR-Eq-2.gjf
 Output=DDL-LR-Eq-2.log
 Initial command:
 /data/home/wyx/g16/l1.exe "/scr/tmp/wyx/13106/Gau-1962058.inp" -scrdir="/scr/tmp/wyx/13106/"
 Entering Link 1 = /data/home/wyx/g16/l1.exe PID=   1962059.
  
 Copyright (c) 1988,1990,1992,1993,1995,1998,2003,2009,2016,
            Gaussian, Inc.  All Rights Reserved.
  
 This is part of the Gaussian(R) 16 program.  It is based on
 the Gaussian(R) 09 system (copyright 2009, Gaussian, Inc.),
 the Gaussian(R) 03 system (copyright 2003, Gaussian, Inc.),
 the Gaussian(R) 98 system (copyright 1998, Gaussian, Inc.),
 the Gaussian(R) 94 system (copyright 1995, Gaussian, Inc.),
 the Gaussian 92(TM) system (copyright 1992, Gaussian, Inc.),
 the Gaussian 90(TM) system (copyright 1990, Gaussian, Inc.),
 the Gaussian 88(TM) system (copyright 1988, Gaussian, Inc.),
 the Gaussian 86(TM) system (copyright 1986, Carnegie Mellon
 University), and the Gaussian 82(TM) system (copyright 1983,
 Carnegie Mellon University). Gaussian is a federally registered
 trademark of Gaussian, Inc.
  
 This software contains proprietary and confidential information,
 including trade secrets, belonging to Gaussian, Inc.
  
 This software is provided under written license and may be
 used, copied, transmitted, or stored only in accord with that
 written license.
  
 The following legend is applicable only to US Government
 contracts under FAR:
  
                    RESTRICTED RIGHTS LEGEND
  
 Use, reproduction and disclosure by the US Government is
 subject to restrictions as set forth in subparagraphs (a)
 and (c) of the Commercial Computer Software - Restricted
 Rights clause in FAR 52.227-19.
  
 Gaussian, Inc.
 340 Quinnipiac St., Bldg. 40, Wallingford CT 06492
  
  
 ---------------------------------------------------------------
 Warning -- This program may not be used in any manner that
 competes with the business of Gaussian, Inc. or will provide
 assistance to any competitor of Gaussian, Inc.  The licensee
 of this program is prohibited from giving any competitor of
 Gaussian, Inc. access to this program.  By using this program,
 the user acknowledges that Gaussian, Inc. is engaged in the
 business of creating and licensing software in the field of
 computational chemistry and represents and warrants to the
 licensee that it is not a competitor of Gaussian, Inc. and that
 it will not use this program in any manner prohibited above.
 ---------------------------------------------------------------
  

 Cite this work as:
 Gaussian 16, Revision A.03,
 M. J. Frisch, G. W. Trucks, H. B. Schlegel, G. E. Scuseria, 
 M. A. Robb, J. R. Cheeseman, G. Scalmani, V. Barone, 
 G. A. Petersson, H. Nakatsuji, X. Li, M. Caricato, A. V. Marenich, 
 J. Bloino, B. G. Janesko, R. Gomperts, B. Mennucci, H. P. Hratchian, 
 J. V. Ortiz, A. F. Izmaylov, J. L. Sonnenberg, D. Williams-Young, 
 F. Ding, F. Lipparini, F. Egidi, J. Goings, B. Peng, A. Petrone, 
 T. Henderson, D. Ranasinghe, V. G. Zakrzewski, J. Gao, N. Rega, 
 G. Zheng, W. Liang, M. Hada, M. Ehara, K. Toyota, R. Fukuda, 
 J. Hasegawa, M. Ishida, T. Nakajima, Y. Honda, O. Kitao, H. Nakai, 
 T. Vreven, K. Throssell, J. A. Montgomery, Jr., J. E. Peralta, 
 F. Ogliaro, M. J. Bearpark, J. J. Heyd, E. N. Brothers, K. N. Kudin, 
 V. N. Staroverov, T. A. Keith, R. Kobayashi, J. Normand, 
 K. Raghavachari, A. P. Rendell, J. C. Burant, S. S. Iyengar, 
 J. Tomasi, M. Cossi, J. M. Millam, M. Klene, C. Adamo, R. Cammi, 
 J. W. Ochterski, R. L. Martin, K. Morokuma, O. Farkas, 
 J. B. Foresman, and D. J. Fox, Gaussian, Inc., Wallingford CT, 2016.
 
 ******************************************
 Gaussian 16:  ES64L-G16RevA.03 25-Dec-2016
                23-Jan-2026 
 ******************************************
 %nprocshared=16
 Will use up to   16 processors via shared memory.
 %mem=16GB
 %oldchk=DDL-LR-2.chk
 %chk=DDL-LR-Eq-2.chk
 Copying data from "DDL-LR-2.chk" to current chk file "DDL-LR-Eq-2.chk"
 IOpt=  2 FromEx=T IUOpen= 4 IOptOp= 5 NList=   0 IFRang= 0 IUIn= 4 IUOut= 2.
 ----------------------------------------------------------------------
 #p CAM-B3LYP TZVP em=gd3bj td(Eqsolv,nstates=6,root=1) scrf=(Solvent=T
 etraHydroFuran) Geom=Check Guess=Read
 ----------------------------------------------------------------------
 1/29=2,38=1,172=1/1;
 2/12=2,40=1/2;
 3/5=19,7=101,11=9,14=-4,25=1,30=1,70=2201,72=20,74=-40,116=-2,124=41/1,2,3,8;
 4/5=1/1;
 5/5=2,38=6,53=20/2;
 8/6=1,10=1,107=1,108=6/1;
 9/8=1,41=6,42=1,70=2,73=2/14;
 6/7=2,8=2,9=2,10=2/1;
 99/5=1,9=1/99;
 Leave Link    1 at Fri Jan 23 15:17:38 2026, MaxMem=  2147483648 cpu:               0.8 elap:               0.2
 (Enter /data/home/wyx/g16/l101.exe)
 -------------------
 Title Card Required
 -------------------
 Structure from the checkpoint file:  "DDL-LR-Eq-2.chk"
 Charge =  0 Multiplicity = 1
 Z-Matrix found in chk file.
 O,0,2.839936,-1.57412,0.027537
 O,0,-3.429685,-1.651347,-0.161017
 N,0,-0.667712,1.518274,-0.169335
 H,0,-0.979804,2.479216,-0.218446
 C,0,-1.249328,-0.763224,-0.19906
 C,0,0.677005,1.338226,-0.016181
 C,0,-1.641231,0.581656,-0.233331
 C,0,-2.210752,-1.848225,-0.190288
 C,0,0.192015,-1.080167,-0.17551
 H,0,0.400774,-1.882018,0.542703
 H,0,0.477238,-1.570612,-1.125705
 C,0,1.14707,0.026047,0.046437
 C,0,2.518271,-0.402673,0.26487
 C,0,-3.030519,1.106595,-0.353814
 H,0,-3.026178,2.192805,-0.442962
 H,0,-3.534303,0.689224,-1.222287
 H,0,-3.633018,0.832991,0.509189
 C,0,-1.705963,-3.270732,-0.184436
 H,0,-2.508783,-3.926567,-0.507959
 H,0,-0.840672,-3.427047,-0.823427
 H,0,-1.42028,-3.564684,0.827007
 C,0,3.569453,0.526233,0.82321
 H,0,4.074471,1.064055,0.017929
 H,0,3.169884,1.257045,1.521521
 H,0,4.31354,-0.085163,1.3294
 C,0,1.470134,2.602425,0.024857
 H,0,1.733665,2.89598,1.042272
 H,0,2.392356,2.511685,-0.541809
 H,0,0.902417,3.424121,-0.411365
 Recover connectivity data from disk.
 ITRead=  0  0  0  0  0  0  0  0  0  0  0  0  0  0  0  0  0  0  0  0
 ITRead=  0  0  0  0  0  0  0  0  0
 MicOpt= -1 -1 -1 -1 -1 -1 -1 -1 -1 -1 -1 -1 -1 -1 -1 -1 -1 -1 -1 -1
 MicOpt= -1 -1 -1 -1 -1 -1 -1 -1 -1
 NAtoms=     29 NQM=       29 NQMF=       0 NMMI=      0 NMMIF=      0
                NMic=       0 NMicF=      0.
                    Isotopes and Nuclear Properties:
 (Nuclear quadrupole moments (NQMom) in fm**2, nuclear magnetic moments (NMagM)
  in nuclear magnetons)

  Atom         1           2           3           4           5           6           7           8           9          10
 IAtWgt=          16          16          14           1          12          12          12          12          12           1
 AtmWgt=  15.9949146  15.9949146  14.0030740   1.0078250  12.0000000  12.0000000  12.0000000  12.0000000  12.0000000   1.0078250
 NucSpn=           0           0           2           1           0           0           0           0           0           1
 AtZEff=   5.6000000   5.6000000   4.5500000   1.0000000   3.6000000   3.6000000   3.6000000   3.6000000   3.6000000   1.0000000
 NQMom=    0.0000000   0.0000000   2.0440000   0.0000000   0.0000000   0.0000000   0.0000000   0.0000000   0.0000000   0.0000000
 NMagM=    0.0000000   0.0000000   0.4037610   2.7928460   0.0000000   0.0000000   0.0000000   0.0000000   0.0000000   2.7928460
 AtZNuc=   8.0000000   8.0000000   7.0000000   1.0000000   6.0000000   6.0000000   6.0000000   6.0000000   6.0000000   1.0000000

  Atom        11          12          13          14          15          16          17          18          19          20
 IAtWgt=           1          12          12          12           1           1           1          12           1           1
 AtmWgt=   1.0078250  12.0000000  12.0000000  12.0000000   1.0078250   1.0078250   1.0078250  12.0000000   1.0078250   1.0078250
 NucSpn=           1           0           0           0           1           1           1           0           1           1
 AtZEff=   1.0000000   3.6000000   3.6000000   3.6000000   1.0000000   1.0000000   1.0000000   3.6000000   1.0000000   1.0000000
 NQMom=    0.0000000   0.0000000   0.0000000   0.0000000   0.0000000   0.0000000   0.0000000   0.0000000   0.0000000   0.0000000
 NMagM=    2.7928460   0.0000000   0.0000000   0.0000000   2.7928460   2.7928460   2.7928460   0.0000000   2.7928460   2.7928460
 AtZNuc=   1.0000000   6.0000000   6.0000000   6.0000000   1.0000000   1.0000000   1.0000000   6.0000000   1.0000000   1.0000000

  Atom        21          22          23          24          25          26          27          28          29
 IAtWgt=           1          12           1           1           1          12           1           1           1
 AtmWgt=   1.0078250  12.0000000   1.0078250   1.0078250   1.0078250  12.0000000   1.0078250   1.0078250   1.0078250
 NucSpn=           1           0           1           1           1           0           1           1           1
 AtZEff=   1.0000000   3.6000000   1.0000000   1.0000000   1.0000000   3.6000000   1.0000000   1.0000000   1.0000000
 NQMom=    0.0000000   0.0000000   0.0000000   0.0000000   0.0000000   0.0000000   0.0000000   0.0000000   0.0000000
 NMagM=    2.7928460   0.0000000   2.7928460   2.7928460   2.7928460   0.0000000   2.7928460   2.7928460   2.7928460
 AtZNuc=   1.0000000   6.0000000   1.0000000   1.0000000   1.0000000   6.0000000   1.0000000   1.0000000   1.0000000
 Leave Link  101 at Fri Jan 23 15:17:41 2026, MaxMem=  2147483648 cpu:               0.8 elap:               0.1
 (Enter /data/home/wyx/g16/l202.exe)
                          Input orientation:                          
 ---------------------------------------------------------------------
 Center     Atomic      Atomic             Coordinates (Angstroms)
 Number     Number       Type             X           Y           Z
 ---------------------------------------------------------------------
      1          8           0        2.839936   -1.574120    0.027537
      2          8           0       -3.429685   -1.651347   -0.161017
      3          7           0       -0.667712    1.518274   -0.169335
      4          1           0       -0.979804    2.479216   -0.218446
      5          6           0       -1.249328   -0.763224   -0.199060
      6          6           0        0.677005    1.338226   -0.016181
      7          6           0       -1.641231    0.581656   -0.233331
      8          6           0       -2.210752   -1.848225   -0.190288
      9          6           0        0.192015   -1.080167   -0.175510
     10          1           0        0.400774   -1.882018    0.542703
     11          1           0        0.477238   -1.570612   -1.125705
     12          6           0        1.147070    0.026047    0.046437
     13          6           0        2.518271   -0.402673    0.264870
     14          6           0       -3.030519    1.106595   -0.353814
     15          1           0       -3.026178    2.192805   -0.442962
     16          1           0       -3.534303    0.689224   -1.222287
     17          1           0       -3.633018    0.832991    0.509189
     18          6           0       -1.705963   -3.270732   -0.184436
     19          1           0       -2.508783   -3.926567   -0.507959
     20          1           0       -0.840672   -3.427047   -0.823427
     21          1           0       -1.420280   -3.564684    0.827007
     22          6           0        3.569453    0.526233    0.823210
     23          1           0        4.074471    1.064055    0.017929
     24          1           0        3.169884    1.257045    1.521521
     25          1           0        4.313540   -0.085163    1.329400
     26          6           0        1.470134    2.602425    0.024857
     27          1           0        1.733665    2.895980    1.042272
     28          1           0        2.392356    2.511685   -0.541809
     29          1           0        0.902417    3.424121   -0.411365
 ---------------------------------------------------------------------
                    Distance matrix (angstroms):
                    1          2          3          4          5
     1  O    0.000000
     2  O    6.272931   0.000000
     3  N    4.680305   4.204172   0.000000
     4  H    5.574985   4.802787   1.011545   0.000000
     5  C    4.175042   2.354605   2.354654   3.253680   0.000000
     6  C    3.627939   5.081676   1.365334   2.021827   2.856623
     7  C    4.979586   2.861835   1.352438   2.009587   1.401237
     8  C    5.062809   1.235077   3.703340   4.499197   1.449703
     9  C    2.701241   3.666493   2.736981   3.747561   1.475967
    10  H    2.511913   3.901390   3.634645   4.637424   2.127146
    11  H    2.629129   4.025070   3.430273   4.398545   2.119334
    12  C    2.329525   4.878870   2.359392   3.257575   2.534944
    13  C    1.237774   6.092516   3.745539   4.558005   3.813139
    14  C    6.464820   2.793340   2.405487   2.471405   2.587047
    15  H    6.987302   3.875541   2.468243   2.078481   3.457570
    16  H    6.878642   2.572064   3.164392   3.276772   2.894427
    17  H    6.922811   2.581173   3.118180   3.206096   2.954911
    18  C    4.856812   2.365201   4.900283   5.795720   2.548789
    19  H    5.867671   2.478922   5.757647   6.592090   3.418828
    20  H    4.207654   3.208564   4.991388   5.938796   2.766367
    21  H    4.769794   2.945294   5.234073   6.149449   2.988347
    22  C    2.361519   7.395843   4.463503   5.059143   5.091992
    23  H    2.912754   7.982342   4.767566   5.253975   5.632838
    24  H    3.218128   7.405673   4.201711   4.662735   5.154738
    25  H    2.466445   8.039391   5.443353   6.082052   5.808740
    26  C    4.395440   6.491329   2.404887   2.465071   4.332806
    27  H    4.715434   6.984717   3.022032   3.020930   4.881488
    28  H    4.149492   7.167426   3.238768   3.387784   4.909620
    29  H    5.378571   6.677586   2.481156   2.114904   4.712636
                    6          7          8          9         10
     6  C    0.000000
     7  C    2.448218   0.000000
     8  C    4.303827   2.496103   0.000000
     9  C    2.471685   2.475033   2.522582   0.000000
    10  H    3.280034   3.292674   2.712653   1.096529   0.000000
    11  H    3.119662   3.149047   2.859609   1.106688   1.698943
    12  C    1.395240   2.856850   3.852779   1.478208   2.108068
    13  C    2.549506   4.303320   4.965929   2.462600   2.597970
    14  C    3.730065   1.490033   3.070785   3.898518   4.637814
    15  H    3.824397   2.134906   4.130216   4.597895   5.414769
    16  H    4.428432   2.138534   3.042278   4.255812   5.021086
    17  H    4.371221   2.140495   3.114647   4.331266   4.862497
    18  C    5.191275   3.853242   1.509428   2.898444   2.625947
    19  H    6.173260   4.599146   2.123498   3.937871   3.708044
    20  H    5.065848   4.130231   2.184185   2.644633   2.407200
    21  H    5.398898   4.285472   2.146152   3.126877   2.495683
    22  C    3.119321   5.317008   6.330561   3.871053   3.989848
    23  H    3.408681   5.741523   6.930278   4.439434   4.738226
    24  H    2.930113   5.165509   6.443930   4.148515   4.298810
    25  H    4.130498   6.192421   6.927065   4.499084   4.376907
    26  C    1.492962   3.718973   5.779576   3.903232   4.639173
    27  H    2.159502   4.286395   6.291670   4.435022   4.985522
    28  H    2.143763   4.482186   6.349881   4.228129   4.944410
    29  H    2.134933   3.818566   6.126853   4.566061   5.414518
                   11         12         13         14         15
    11  H    0.000000
    12  C    2.090912   0.000000
    13  C    2.731958   1.453171   0.000000
    14  C    4.479689   4.333594   5.783574   0.000000
    15  H    5.186846   4.727616   6.162666   1.089871   0.000000
    16  H    4.605285   4.895377   6.327521   1.087310   1.768133
    17  H    5.034321   4.869758   6.278926   1.087492   1.767467
    18  C    2.922800   4.365988   5.125602   4.576476   5.626726
    19  H    3.853369   5.412557   6.187598   5.062479   6.141550
    20  H    2.296652   4.078191   4.649057   5.056666   6.041848
    21  H    3.374905   4.482625   5.081978   5.080163   6.110680
    22  C    4.213884   2.592586   1.509832   6.729178   6.919754
    23  H    4.603200   3.106115   2.152680   7.114836   7.204562
    24  H    4.717393   2.789804   2.181384   6.479546   6.567041
    25  H    4.790753   3.418317   2.111167   7.628152   7.886816
    26  C    4.441157   2.596644   3.191678   4.757812   4.539104
    27  H    5.121443   3.093913   3.478660   5.277159   5.035522
    28  H    4.546841   2.841684   3.026560   5.605104   5.428809
    29  H    5.063439   3.437491   4.208638   4.565329   4.117159
                   16         17         18         19         20
    16  H    0.000000
    17  H    1.740236   0.000000
    18  C    4.483438   4.586415   0.000000
    19  H    4.781996   4.995186   1.085959   0.000000
    20  H    4.935425   5.265072   1.086956   1.769643   0.000000
    21  H    5.173435   4.933230   1.091348   1.760094   1.754657
    22  C    7.394185   7.215837   6.577409   7.651431   6.147279
    23  H    7.718295   7.726585   7.228053   8.277808   6.710925
    24  H    7.266156   6.890872   6.869129   7.952099   6.597277
    25  H    8.288511   8.041364   6.976673   8.042162   6.509129
    26  C    5.500918   5.422881   6.680222   7.664425   6.512599
    27  H    6.144061   5.774200   7.166881   8.182220   7.077338
    28  H    6.237764   6.342534   7.096498   8.091563   6.767593
    29  H    5.274632   5.303918   7.188616   8.104211   7.081430
                   21         22         23         24         25
    21  H    0.000000
    22  C    6.452368   0.000000
    23  H    7.229946   1.092142   0.000000
    24  H    6.693357   1.086913   1.765308   0.000000
    25  H    6.725783   1.087979   1.760060   1.773804   0.000000
    26  C    6.857928   3.058608   3.024765   2.634236   4.124308
    27  H    7.192627   3.005629   3.143978   2.231258   3.952899
    28  H    7.302884   2.681577   2.288766   2.536928   3.733094
    29  H    7.468057   4.127349   3.976950   3.684247   5.194333
                   26         27         28         29
    26  C    0.000000
    27  H    1.091218   0.000000
    28  H    1.086203   1.758087   0.000000
    29  H    1.089852   1.755838   1.751991   0.000000
 Stoichiometry    C11H15NO2
 Framework group  C1[X(C11H15NO2)]
 Deg. of freedom    81
 Full point group                 C1      NOp   1
 RotChk:  IX=0 Diff= 1.35D-15
 Largest Abelian subgroup         C1      NOp   1
 Largest concise Abelian subgroup C1      NOp   1
                         Standard orientation:                         
 ---------------------------------------------------------------------
 Center     Atomic      Atomic             Coordinates (Angstroms)
 Number     Number       Type             X           Y           Z
 ---------------------------------------------------------------------
      1          8           0        2.283190   -2.286344   -0.279783
      2          8           0       -3.631669   -0.261053    0.232379
      3          7           0        0.018250    1.803861   -0.066421
      4          1           0        0.043916    2.815044   -0.074977
      5          6           0       -1.295972   -0.149778   -0.043856
      6          6           0        1.232450    1.179477   -0.065370
      7          6           0       -1.214474    1.248981   -0.026595
      8          6           0       -2.559720   -0.851555    0.066098
      9          6           0       -0.050701   -0.929760   -0.183154
     10          1           0       -0.050542   -1.785285    0.502742
     11          1           0       -0.046622   -1.446105   -1.161995
     12          6           0        1.238041   -0.215751   -0.063003
     13          6           0        2.400213   -1.085964   -0.001437
     14          6           0       -2.351130    2.211655    0.011735
     15          1           0       -1.991270    3.237050   -0.071230
     16          1           0       -3.052701    2.023650   -0.797397
     17          1           0       -2.917985    2.117887    0.935056
     18          6           0       -2.564558   -2.359839    0.007557
     19          1           0       -3.569929   -2.696068   -0.227996
     20          1           0       -1.873017   -2.768168   -0.724913
     21          1           0       -2.291430   -2.775195    0.979112
     22          6           0        3.754106   -0.585384    0.441268
     23          1           0        4.324449   -0.212741   -0.412324
     24          1           0        3.697738    0.206240    1.183922
     25          1           0        4.297526   -1.430911    0.857774
     26          6           0        2.404006    2.103998   -0.106028
     27          1           0        2.854434    2.249105    0.877239
     28          1           0        3.178348    1.735359   -0.772614
     29          1           0        2.103592    3.085807   -0.471513
 ---------------------------------------------------------------------
 Rotational constants (GHZ):           1.0728848           0.4896112           0.3424924
 Leave Link  202 at Fri Jan 23 15:17:42 2026, MaxMem=  2147483648 cpu:               0.0 elap:               0.0
 (Enter /data/home/wyx/g16/l301.exe)
 Standard basis: TZVP (5D, 7F)
 Ernie: Thresh=  0.10000D-02 Tol=  0.10000D-05 Strict=F.
 There are   370 symmetry adapted cartesian basis functions of A   symmetry.
 There are   356 symmetry adapted basis functions of A   symmetry.
   356 basis functions,   610 primitive gaussians,   370 cartesian basis functions
    52 alpha electrons       52 beta electrons
       nuclear repulsion energy       898.8295996437 Hartrees.
 IExCor=20419 DFT=T Ex+Corr=CAM-B3LYP ExCW=0 ScaHFX=  1.000000
 ScaDFX=  1.000000  1.000000  1.000000  0.810000 ScalE2=  1.000000  1.000000
 IRadAn=      5 IRanWt=     -1 IRanGd=            0 ICorTp=0 IEmpDi=141
 HFx  wShort=  0.000000 wLong=  0.330000 cFull=  0.190000 cShort=  0.000000 cLong=  0.460000
 DFx  wShort=  0.000000 wLong=  0.330000 cFull=  0.190000 cShort=  0.000000 cLong=  0.460000
 NAtoms=   29 NActive=   29 NUniq=   29 SFac= 1.00D+00 NAtFMM=   60 NAOKFM=F Big=F
 Integral buffers will be    131072 words long.
 Raffenetti 1 integral format.
 Two-electron integral symmetry is turned on.
 R6Disp:  Grimme-D3(BJ) Dispersion energy=       -0.0261136807 Hartrees.
 Nuclear repulsion after empirical dispersion term =      898.8034859630 Hartrees.
 ------------------------------------------------------------------------------
 Polarizable Continuum Model (PCM)
 =================================
 Model                : PCM.
 Atomic radii         : UFF (Universal Force Field).
 Polarization charges : Total charges.
 Charge compensation  : None.
 Solution method      : On-the-fly selection.
 Cavity type          : Scaled VdW (van der Waals Surface) (Alpha=1.100).
 Cavity algorithm     : GePol (No added spheres)
                        Default sphere list used, NSphG=   29.
                        Lebedev-Laikov grids with approx.  5.0 points / Ang**2.
                        Smoothing algorithm: York/Karplus (Gamma=1.0000).
                        Polarization charges: spherical gaussians, with
                                              point-specific exponents (IZeta= 3).
                        Self-potential: point-specific (ISelfS= 7).
                        Self-field    : sphere-specific E.n sum rule (ISelfD= 2).
 Solvent              : TetraHydroFuran, Eps=   7.425700 Eps(inf)=   1.974025
 ------------------------------------------------------------------------------
 GePol: Number of generator spheres                  =      29
 GePol: Total number of spheres                      =      29
 GePol: Number of exposed spheres                    =      29 (100.00%)
 GePol: Number of points                             =    2093
 GePol: Average weight of points                     =       0.13
 GePol: Minimum weight of points                     =   0.22D-10
 GePol: Maximum weight of points                     =    0.20577
 GePol: Number of points with low weight             =     115
 GePol: Fraction of low-weight points (<1% of avg)   =       5.49%
 GePol: Cavity surface area                          =    269.445 Ang**2
 GePol: Cavity volume                                =    287.443 Ang**3
 Leave Link  301 at Fri Jan 23 15:17:42 2026, MaxMem=  2147483648 cpu:               0.6 elap:               0.0
 (Enter /data/home/wyx/g16/l302.exe)
 NPDir=0 NMtPBC=     1 NCelOv=     1 NCel=       1 NClECP=     1 NCelD=      1
         NCelK=      1 NCelE2=     1 NClLst=     1 CellRange=     0.0.
 One-electron integrals computed using PRISM.
 One-electron integral symmetry used in STVInt
 NBasis=   356 RedAO= T EigKep=  3.98D-05  NBF=   356
 NBsUse=   356 1.00D-06 EigRej= -1.00D+00 NBFU=   356
 Precomputing XC quadrature grid using
 IXCGrd= 4 IRadAn=           5 IRanWt=          -1 IRanGd=           0 AccXCQ= 0.00D+00.
 Generated NRdTot=       0 NPtTot=           0 NUsed=           0 NTot=          32
 NSgBfM=   366   366   366   366   366 MxSgAt=    29 MxSgA2=    29.
 Leave Link  302 at Fri Jan 23 15:17:42 2026, MaxMem=  2147483648 cpu:               3.2 elap:               0.2
 (Enter /data/home/wyx/g16/l303.exe)
 DipDrv:  MaxL=1.
 Leave Link  303 at Fri Jan 23 15:17:42 2026, MaxMem=  2147483648 cpu:               0.6 elap:               0.0
 (Enter /data/home/wyx/g16/l308.exe)
 Leave Link  308 at Fri Jan 23 15:17:43 2026, MaxMem=  2147483648 cpu:               0.7 elap:               0.1
 (Enter /data/home/wyx/g16/l401.exe)
 Initial guess from the checkpoint file:  "DDL-LR-Eq-2.chk"
 B after Tr=    -0.000000   -0.000000   -0.000000
         Rot=    1.000000   -0.000000   -0.000000   -0.000000 Ang=   0.00 deg.
 Guess basis will be translated and rotated to current coordinates.
 JPrj=2 DoOrth=T DoCkMO=T.
 Leave Link  401 at Fri Jan 23 15:17:43 2026, MaxMem=  2147483648 cpu:               2.2 elap:               0.2
 (Enter /data/home/wyx/g16/l502.exe)
 Integral symmetry usage will be decided dynamically.
 Closed shell SCF:
 Using DIIS extrapolation, IDIIS=  1040.
 NGot=  2147483648 LenX=  2147200095 LenY=  2147062754
 Requested convergence on RMS density matrix=1.00D-08 within 128 cycles.
 Requested convergence on MAX density matrix=1.00D-06.
 Requested convergence on             energy=1.00D-06.
 No special actions if energy rises.
 Fock matrices will be formed incrementally for  20 cycles.

 Cycle   1  Pass 1  IDiag  1:
 FoFJK:  IHMeth= 1 ICntrl=       0 DoSepK=T KAlg= 0 I1Cent=           0 FoldK=F
 IRaf=         1 NMat=       1 IRICut=       1 DoRegI=T DoRafI=F ISym2E= 0 IDoP0=0 IntGTp=1.
 FoFCou: FMM=F IPFlag=           0 FMFlag=      100000 FMFlg1=           0
         NFxFlg=           0 DoJE=T BraDBF=F KetDBF=F FulRan=T
         wScrn=  0.000000 ICntrl=       500 IOpCl=  0 I1Cent=           0 NGrid=           0
         NMat0=    1 NMatS0=      1 NMatT0=    0 NMatD0=    1 NMtDS0=    0 NMtDT0=    0
 Symmetry not used in FoFCou.
 Inv3:  Mode=1 IEnd=    13141947.
 Iteration    1 A*A^-1 deviation from unit magnitude is 3.55D-15 for    584.
 Iteration    1 A*A^-1 deviation from orthogonality  is 1.89D-15 for   1908     92.
 Iteration    1 A^-1*A deviation from unit magnitude is 3.55D-15 for    229.
 Iteration    1 A^-1*A deviation from orthogonality  is 4.29D-15 for   1391   1338.
 E= -633.319656014561    
 DIIS: error= 1.49D-08 at cycle   1 NSaved=   1.
 NSaved= 1 IEnMin= 1 EnMin= -633.319656014561     IErMin= 1 ErrMin= 1.49D-08
 ErrMax= 1.49D-08  0.00D+00 EMaxC= 1.00D-01 BMatC= 7.15D-14 BMatP= 7.15D-14
 IDIUse=1 WtCom= 1.00D+00 WtEn= 0.00D+00
 Coeff-Com:  0.100D+01
 Coeff:      0.100D+01
 Gap=     0.217 Goal=   None    Shift=    0.000
 RMSDP=3.91D-09 MaxDP=1.29D-07              OVMax= 1.64D-07

 Error on total polarization charges =  0.01439
 SCF Done:  E(RCAM-B3LYP) =  -633.319656015     A.U. after    1 cycles
            NFock=  1  Conv=0.39D-08     -V/T= 2.0043
 KE= 6.306149545794D+02 PE=-3.273524209955D+03 EE= 1.110786113398D+03
 Leave Link  502 at Fri Jan 23 15:17:49 2026, MaxMem=  2147483648 cpu:              85.7 elap:               5.6
 (Enter /data/home/wyx/g16/l801.exe)
 DoSCS=F DFT=T ScalE2(SS,OS)=  1.000000  1.000000
 ExpMin= 9.52D-02 ExpMax= 2.70D+04 ExpMxC= 9.22D+02 IAcc=3 IRadAn=         5 AccDes= 0.00D+00
 HarFok:  IExCor=  205 AccDes= 0.00D+00 IRadAn=         5 IDoV=-2 UseB2=F ITyADJ=14
 ICtDFT= 12500011 ScaDFX=  1.000000  1.000000  1.000000  1.000000
 Largest valence mixing into a core orbital is  5.59D-05
 Largest core mixing into a valence orbital is  1.14D-05
 Range of M.O.s used for correlation:    15   356
 NBasis=   356 NAE=    52 NBE=    52 NFC=    14 NFV=     0
 NROrb=    342 NOA=    38 NOB=    38 NVA=   304 NVB=   304

 **** Warning!!: The largest alpha MO coefficient is  0.61179361D+02

 Leave Link  801 at Fri Jan 23 15:17:49 2026, MaxMem=  2147483648 cpu:               1.0 elap:               0.1
 (Enter /data/home/wyx/g16/l914.exe)
 RHF ground state
 Two-electron integrals replicated using symmetry.
 MDV=  2147483648 DFT=T DoStab=F Mixed=T DoRPA=T DoScal=F NonHer=T
 NEqPCM:  Using equilibrium solvation (IEInf=0, Eps=   7.4257, EpsInf=   1.9740)
 Making orbital integer symmetry assigments:
 Orbital symmetries:
       Occupied  (A) (A) (A) (A) (A) (A) (A) (A) (A) (A) (A) (A)
                 (A) (A) (A) (A) (A) (A) (A) (A) (A) (A) (A) (A)
                 (A) (A) (A) (A) (A) (A) (A) (A) (A) (A) (A) (A)
                 (A) (A) (A) (A) (A) (A) (A) (A) (A) (A) (A) (A)
                 (A) (A) (A) (A)
       Virtual   (A) (A) (A) (A) (A) (A) (A) (A) (A) (A) (A) (A)
                 (A) (A) (A) (A) (A) (A) (A) (A) (A) (A) (A) (A)
                 (A) (A) (A) (A) (A) (A) (A) (A) (A) (A) (A) (A)
                 (A) (A) (A) (A) (A) (A) (A) (A) (A) (A) (A) (A)
                 (A) (A) (A) (A) (A) (A) (A) (A) (A) (A) (A) (A)
                 (A) (A) (A) (A) (A) (A) (A) (A) (A) (A) (A) (A)
                 (A) (A) (A) (A) (A) (A) (A) (A) (A) (A) (A) (A)
                 (A) (A) (A) (A) (A) (A) (A) (A) (A) (A) (A) (A)
                 (A) (A) (A) (A) (A) (A) (A) (A) (A) (A) (A) (A)
                 (A) (A) (A) (A) (A) (A) (A) (A) (A) (A) (A) (A)
                 (A) (A) (A) (A) (A) (A) (A) (A) (A) (A) (A) (A)
                 (A) (A) (A) (A) (A) (A) (A) (A) (A) (A) (A) (A)
                 (A) (A) (A) (A) (A) (A) (A) (A) (A) (A) (A) (A)
                 (A) (A) (A) (A) (A) (A) (A) (A) (A) (A) (A) (A)
                 (A) (A) (A) (A) (A) (A) (A) (A) (A) (A) (A) (A)
                 (A) (A) (A) (A) (A) (A) (A) (A) (A) (A) (A) (A)
                 (A) (A) (A) (A) (A) (A) (A) (A) (A) (A) (A) (A)
                 (A) (A) (A) (A) (A) (A) (A) (A) (A) (A) (A) (A)
                 (A) (A) (A) (A) (A) (A) (A) (A) (A) (A) (A) (A)
                 (A) (A) (A) (A) (A) (A) (A) (A) (A) (A) (A) (A)
                 (A) (A) (A) (A) (A) (A) (A) (A) (A) (A) (A) (A)
                 (A) (A) (A) (A) (A) (A) (A) (A) (A) (A) (A) (A)
                 (A) (A) (A) (A) (A) (A) (A) (A) (A) (A) (A) (A)
                 (A) (A) (A) (A) (A) (A) (A) (A) (A) (A) (A) (A)
                 (A) (A) (A) (A) (A) (A) (A) (A) (A) (A) (A) (A)
                 (A) (A) (A) (A)
    24 initial guesses have been made.
 Convergence on wavefunction:    0.001000000000000
 Davidson Disk Diagonalization:  ConvIn= 1.00D-03 SkipCon=T Conv= 1.00D-03.
 Max sub-space:  2000 roots to seek:    24 dimension of matrix:        23104
 Iteration     1 Dimension    24 NMult     0 NNew     24
 CISAX will form    24 AO SS matrices at one time.
 NMat=    24 NSing=    24 JSym2X= 0.
 FoFJK:  IHMeth= 1 ICntrl=       0 DoSepK=T KAlg= 0 I1Cent=           0 FoldK=F
 IRaf=         1 NMat=      48 IRICut=       1 DoRegI=T DoRafI=F ISym2E= 0 IDoP0=3 IntGTp=3.
 FoFCou: FMM=F IPFlag=           0 FMFlag=      100000 FMFlg1=           0
         NFxFlg=           0 DoJE=F BraDBF=F KetDBF=F FulRan=T
         wScrn=  0.000000 ICntrl=       500 IOpCl=  0 I1Cent=           0 NGrid=           0
         NMat0=   24 NMatS0=     24 NMatT0=    0 NMatD0=   24 NMtDS0=    0 NMtDT0=    0
 Symmetry not used in FoFCou.
 New state      2 was old state      3
 New state      3 was old state      4
 New state      4 was old state      2
 New state      5 was old state      6
 New state      6 was old state      5
 Excitation Energies [eV] at current iteration:
 Root      1 :     3.356450914309467
 Root      2 :     4.141034584572982
 Root      3 :     4.356934192402002
 Root      4 :     5.241472680163792
 Root      5 :     5.849001077035997
 Root      6 :     6.018371164088467
 Root      7 :     6.408026967595791
 Root      8 :     6.674399434184843
 Root      9 :     6.777713268081021
 Root     10 :     6.943655999070021
 Root     11 :     7.017722193652747
 Root     12 :     7.244905384310920
 Root     13 :     7.294397344834801
 Root     14 :     7.308046998711485
 Root     15 :     7.536417940293945
 Root     16 :     7.917483873394079
 Root     17 :     7.961831563655476
 Root     18 :     8.073695782739163
 Root     19 :     8.099992815748477
 Root     20 :     8.308665407483478
 Root     21 :     8.347375493798948
 Root     22 :     8.444356238483675
 Root     23 :     8.586111572420883
 Root     24 :     8.727634806395539
 Iteration     2 Dimension    36 NMult    24 NNew     12
 CISAX will form    12 AO SS matrices at one time.
 NMat=    12 NSing=    12 JSym2X= 0.
 Root      1 not converged, maximum delta is    0.040871379512446
 Root      2 not converged, maximum delta is    0.076483878879404
 Root      3 not converged, maximum delta is    0.088903554564337
 Root      4 not converged, maximum delta is    0.315165608128973
 New state      5 was old state      6
 Root      5 not converged, maximum delta is    0.316239224116537
 New state      6 was old state      5
 Root      6 not converged, maximum delta is    0.128889819074784
 Excitation Energies [eV] at current iteration:
 Root      1 :     2.919126446808347   Change is   -0.437324467501120
 Root      2 :     3.929262598878886   Change is   -0.211771985694096
 Root      3 :     4.101780002804873   Change is   -0.255154189597129
 Root      4 :     4.848348440456387   Change is   -0.393124239707405
 Root      5 :     5.289078212533288   Change is   -0.729292951555180
 Root      6 :     5.744953654984057   Change is   -0.104047422051940
 Iteration     3 Dimension    48 NMult    36 NNew     12
 CISAX will form    12 AO SS matrices at one time.
 NMat=    12 NSing=    12 JSym2X= 0.
 Root      1 not converged, maximum delta is    0.006266326749167
 Root      2 not converged, maximum delta is    0.017255107681759
 Root      3 not converged, maximum delta is    0.013392364159914
 Root      4 not converged, maximum delta is    0.015266827121084
 Root      5 not converged, maximum delta is    0.016106689577837
 Root      6 not converged, maximum delta is    0.006811959511803
 Excitation Energies [eV] at current iteration:
 Root      1 :     2.904330836368475   Change is   -0.014795610439872
 Root      2 :     3.917017036609211   Change is   -0.012245562269675
 Root      3 :     4.087919716278233   Change is   -0.013860286526641
 Root      4 :     4.828756182102325   Change is   -0.019592258354063
 Root      5 :     5.269427093112316   Change is   -0.019651119420971
 Root      6 :     5.740729463654448   Change is   -0.004224191329609
 Iteration     4 Dimension    60 NMult    48 NNew     12
 CISAX will form    12 AO SS matrices at one time.
 NMat=    12 NSing=    12 JSym2X= 0.
 Root      1 not converged, maximum delta is    0.002301607226729
 Root      2 not converged, maximum delta is    0.001896030340151
 Root      3 not converged, maximum delta is    0.002433439475941
 Root      4 not converged, maximum delta is    0.002344378305531
 Root      5 not converged, maximum delta is    0.002195495345979
 Root      6 not converged, maximum delta is    0.001979889405977
 Excitation Energies [eV] at current iteration:
 Root      1 :     2.903206970974362   Change is   -0.001123865394112
 Root      2 :     3.916453984854323   Change is   -0.000563051754889
 Root      3 :     4.086936019291207   Change is   -0.000983696987026
 Root      4 :     4.826916551868353   Change is   -0.001839630233971
 Root      5 :     5.267527925844936   Change is   -0.001899167267381
 Root      6 :     5.740467986527812   Change is   -0.000261477126636
 Iteration     5 Dimension    72 NMult    60 NNew     12
 CISAX will form    12 AO SS matrices at one time.
 NMat=    12 NSing=    12 JSym2X= 0.
 Root      1 has converged.
 Root      2 has converged.
 Root      3 has converged.
 Root      4 has converged.
 Root      5 has converged.
 Root      6 has converged.
 Excitation Energies [eV] at current iteration:
 Root      1 :     2.903156420072606   Change is   -0.000050550901757
 Root      2 :     3.916415365305597   Change is   -0.000038619548726
 Root      3 :     4.086894884753350   Change is   -0.000041134537857
 Root      4 :     4.826790988957298   Change is   -0.000125562911055
 Root      5 :     5.267382588442743   Change is   -0.000145337402193
 Root      6 :     5.740447809740769   Change is   -0.000020176787042
 Convergence achieved on expansion vectors.
 ***********************************************************************
 Excited states from <AA,BB:AA,BB> singles matrix:
 ***********************************************************************
 
 1PDM for each excited state written to RWF  633
 Ground to excited state transition densities written to RWF  633
 Ground to excited state transition electric dipole moments (Au):
       state          X           Y           Z        Dip. S.      Osc.
         1         1.6266     -0.1789     -0.0491      2.6801      0.1906
         2         0.0013     -0.0447      0.0352      0.0032      0.0003
         3        -0.0703      0.0963     -0.0231      0.0147      0.0015
         4         0.1929      1.7145     -0.0466      2.9790      0.3523
         5        -0.0745     -1.5535     -0.0027      2.4188      0.3121
         6        -0.0139     -0.2025     -0.0409      0.0429      0.0060
 Ground to excited state transition velocity dipole moments (Au):
       state          X           Y           Z        Dip. S.      Osc.
         1        -0.1669      0.0150      0.0054      0.0281      0.1757
         2        -0.0004      0.0067     -0.0018      0.0000      0.0002
         3         0.0098     -0.0121      0.0002      0.0002      0.0011
         4        -0.0393     -0.2903      0.0055      0.0859      0.3227
         5         0.0150      0.2947     -0.0004      0.0871      0.2998
         6         0.0042      0.0408      0.0289      0.0025      0.0079
 Ground to excited state transition magnetic dipole moments (Au):
       state          X           Y           Z
         1         0.0162     -0.0583      1.4786
         2         0.7819     -0.1149     -0.0750
         3         0.1898     -0.9640     -0.2204
         4        -0.0170      0.0562     -0.0671
         5         0.0981     -0.0987      0.2763
         6        -0.0569      0.0148     -0.0399
 Ground to excited state transition velocity quadrupole moments (Au):
       state          XX          YY          ZZ          XY          XZ          YZ
         1         0.1650     -0.0881     -0.0061      0.4774     -0.0268     -0.0187
         2         0.0247     -0.0083     -0.0106     -0.0078      0.0081      0.0757
         3        -0.0351      0.0074      0.0175     -0.0672      0.0628      0.0102
         4         1.3201     -0.2746     -0.0163     -0.0685     -0.0702      0.0263
         5        -0.4521      0.2893      0.0311      0.2289      0.0591     -0.0006
         6         0.1117      0.1349     -0.1102     -0.0151     -0.0272     -0.1222
 <0|del|b> * <b|rxdel|0> + <0|del|b> * <b|delr+rdel|0>
 Rotatory Strengths (R) in cgs (10**-40 erg-esu-cm/Gauss)
       state          XX          YY          ZZ    R(velocity)    E-M Angle
         1        33.3220     19.2655    -23.5369      9.6835       88.99
         2        -1.6516     -0.4492     -2.3738     -1.4915       99.50
         3        29.1062      4.5304     29.7710     21.1358       30.57
         4       -74.5847     -0.7126     11.4961    -21.2670      127.78
         5       -85.3990      2.6318    -18.6133    -33.7935      107.70
         6         0.2076     -2.4700     -0.3833     -0.8819      102.80
 1/2[<0|r|b>*<b|rxdel|0> + (<0|rxdel|b>*<b|r|0>)*]
 Rotatory Strengths (R) in cgs (10**-40 erg-esu-cm/Gauss)
       state          XX          YY          ZZ     R(length)
         1       -18.5948     -7.3701     51.3084      8.4478
         2        -0.7183     -3.6272      1.8653     -0.8267
         3         9.4354     65.6404     -3.6007     23.8250
         4         2.3187    -68.0804     -2.2098    -22.6572
         5         5.1704   -108.4800      0.5344    -34.2584
         6        -0.5615      2.1210     -1.1552      0.1348
  1/2[<0|del|b>*<b|r|0> + (<0|r|b>*<b|del|0>)*] (Au)
       state          X           Y           Z        Dip. S.   Osc.(frdel)
         1        -0.2715     -0.0027     -0.0003      0.2745      0.1830
         2        -0.0000     -0.0003     -0.0001      0.0004      0.0002
         3        -0.0007     -0.0012     -0.0000      0.0019      0.0012
         4        -0.0076     -0.4978     -0.0003      0.5056      0.3371
         5        -0.0011     -0.4578      0.0000      0.4589      0.3059
         6        -0.0001     -0.0083     -0.0012      0.0095      0.0063

 Excitation energies and oscillator strengths:
 
 Excited State   1:      Singlet-A      2.9032 eV  427.07 nm  f=0.1906  <S**2>=0.000
      52 -> 53         0.70176
 This state for optimization and/or second-order correction.
 Total Energy, E(TD-HF/TD-DFT) =  -633.212966979    
 Copying the excited state density for this state as the 1-particle RhoCI density.
 
 Excited State   2:      Singlet-A      3.9164 eV  316.58 nm  f=0.0003  <S**2>=0.000
      50 -> 54         0.16304
      51 -> 53         0.58968
      51 -> 54         0.31400
 
 Excited State   3:      Singlet-A      4.0869 eV  303.37 nm  f=0.0015  <S**2>=0.000
      49 -> 53         0.27617
      49 -> 54        -0.15542
      50 -> 53         0.52699
      50 -> 54        -0.23924
      50 -> 58         0.11017
      51 -> 54         0.19316
 
 Excited State   4:      Singlet-A      4.8268 eV  256.87 nm  f=0.3523  <S**2>=0.000
      52 -> 54         0.69674
 
 Excited State   5:      Singlet-A      5.2674 eV  235.38 nm  f=0.3121  <S**2>=0.000
      49 -> 53         0.60662
      50 -> 53        -0.32222
 
 Excited State   6:      Singlet-A      5.7404 eV  215.98 nm  f=0.0060  <S**2>=0.000
      52 -> 55         0.64730
      52 -> 56         0.17175
      52 -> 57         0.12819
      52 -> 62        -0.10085
 SavETr:  write IOETrn=   770 NScale= 10 NData=  16 NLR=1 NState=    6 LETran=     118.
 Leave Link  914 at Fri Jan 23 15:19:41 2026, MaxMem=  2147483648 cpu:            1772.0 elap:             111.1
 (Enter /data/home/wyx/g16/l601.exe)
 Copying SCF densities to generalized density rwf, IOpCl= 0 IROHF=0.

 **********************************************************************

            Population analysis using the SCF density.

 **********************************************************************

 Orbital symmetries:
       Occupied  (A) (A) (A) (A) (A) (A) (A) (A) (A) (A) (A) (A)
                 (A) (A) (A) (A) (A) (A) (A) (A) (A) (A) (A) (A)
                 (A) (A) (A) (A) (A) (A) (A) (A) (A) (A) (A) (A)
                 (A) (A) (A) (A) (A) (A) (A) (A) (A) (A) (A) (A)
                 (A) (A) (A) (A)
       Virtual   (A) (A) (A) (A) (A) (A) (A) (A) (A) (A) (A) (A)
                 (A) (A) (A) (A) (A) (A) (A) (A) (A) (A) (A) (A)
                 (A) (A) (A) (A) (A) (A) (A) (A) (A) (A) (A) (A)
                 (A) (A) (A) (A) (A) (A) (A) (A) (A) (A) (A) (A)
                 (A) (A) (A) (A) (A) (A) (A) (A) (A) (A) (A) (A)
                 (A) (A) (A) (A) (A) (A) (A) (A) (A) (A) (A) (A)
                 (A) (A) (A) (A) (A) (A) (A) (A) (A) (A) (A) (A)
                 (A) (A) (A) (A) (A) (A) (A) (A) (A) (A) (A) (A)
                 (A) (A) (A) (A) (A) (A) (A) (A) (A) (A) (A) (A)
                 (A) (A) (A) (A) (A) (A) (A) (A) (A) (A) (A) (A)
                 (A) (A) (A) (A) (A) (A) (A) (A) (A) (A) (A) (A)
                 (A) (A) (A) (A) (A) (A) (A) (A) (A) (A) (A) (A)
                 (A) (A) (A) (A) (A) (A) (A) (A) (A) (A) (A) (A)
                 (A) (A) (A) (A) (A) (A) (A) (A) (A) (A) (A) (A)
                 (A) (A) (A) (A) (A) (A) (A) (A) (A) (A) (A) (A)
                 (A) (A) (A) (A) (A) (A) (A) (A) (A) (A) (A) (A)
                 (A) (A) (A) (A) (A) (A) (A) (A) (A) (A) (A) (A)
                 (A) (A) (A) (A) (A) (A) (A) (A) (A) (A) (A) (A)
                 (A) (A) (A) (A) (A) (A) (A) (A) (A) (A) (A) (A)
                 (A) (A) (A) (A) (A) (A) (A) (A) (A) (A) (A) (A)
                 (A) (A) (A) (A) (A) (A) (A) (A) (A) (A) (A) (A)
                 (A) (A) (A) (A) (A) (A) (A) (A) (A) (A) (A) (A)
                 (A) (A) (A) (A) (A) (A) (A) (A) (A) (A) (A) (A)
                 (A) (A) (A) (A) (A) (A) (A) (A) (A) (A) (A) (A)
                 (A) (A) (A) (A) (A) (A) (A) (A) (A) (A) (A) (A)
                 (A) (A) (A) (A)
 The electronic state is 1-A.
 Alpha  occ. eigenvalues --  -19.17797 -19.16881 -14.44863 -10.33356 -10.32929
 Alpha  occ. eigenvalues --  -10.32776 -10.32296 -10.26290 -10.25449 -10.25134
 Alpha  occ. eigenvalues --  -10.24726 -10.24437 -10.24221 -10.23638  -1.11342
 Alpha  occ. eigenvalues --   -1.10747  -1.08551  -0.91456  -0.90538  -0.83957
 Alpha  occ. eigenvalues --   -0.82692  -0.81682  -0.78529  -0.73840  -0.72239
 Alpha  occ. eigenvalues --   -0.68711  -0.61569  -0.58310  -0.57051  -0.55161
 Alpha  occ. eigenvalues --   -0.54664  -0.54004  -0.52493  -0.51771  -0.50874
 Alpha  occ. eigenvalues --   -0.49705  -0.49509  -0.49269  -0.48702  -0.48014
 Alpha  occ. eigenvalues --   -0.47273  -0.45295  -0.45117  -0.44036  -0.43317
 Alpha  occ. eigenvalues --   -0.42124  -0.42104  -0.41469  -0.32586  -0.32157
 Alpha  occ. eigenvalues --   -0.31110  -0.25066
 Alpha virt. eigenvalues --   -0.03349   0.02536   0.06213   0.08008   0.08374
 Alpha virt. eigenvalues --    0.09707   0.10709   0.11476   0.12497   0.13370
 Alpha virt. eigenvalues --    0.13834   0.14814   0.15547   0.16373   0.16933
 Alpha virt. eigenvalues --    0.17438   0.17822   0.18044   0.18460   0.19229
 Alpha virt. eigenvalues --    0.19823   0.21955   0.22697   0.23429   0.23823
 Alpha virt. eigenvalues --    0.24009   0.24710   0.25620   0.26307   0.26691
 Alpha virt. eigenvalues --    0.27364   0.28033   0.28457   0.29501   0.30146
 Alpha virt. eigenvalues --    0.31576   0.31876   0.32287   0.33382   0.34145
 Alpha virt. eigenvalues --    0.34675   0.35755   0.36691   0.37618   0.38524
 Alpha virt. eigenvalues --    0.39642   0.40949   0.41343   0.41787   0.42443
 Alpha virt. eigenvalues --    0.43969   0.44825   0.45540   0.46188   0.46478
 Alpha virt. eigenvalues --    0.47277   0.47698   0.47855   0.48446   0.49158
 Alpha virt. eigenvalues --    0.49611   0.50543   0.51226   0.51343   0.51547
 Alpha virt. eigenvalues --    0.52471   0.52658   0.53259   0.53644   0.54188
 Alpha virt. eigenvalues --    0.54317   0.55249   0.55825   0.56636   0.58171
 Alpha virt. eigenvalues --    0.58403   0.59975   0.61039   0.61784   0.63084
 Alpha virt. eigenvalues --    0.64140   0.64995   0.66367   0.66896   0.67532
 Alpha virt. eigenvalues --    0.68722   0.69267   0.70624   0.71020   0.72025
 Alpha virt. eigenvalues --    0.72968   0.74716   0.75135   0.76031   0.77592
 Alpha virt. eigenvalues --    0.79051   0.80608   0.83376   0.86685   0.87502
 Alpha virt. eigenvalues --    0.91576   0.95774   1.02422   1.04307   1.21905
 Alpha virt. eigenvalues --    1.24267   1.27321   1.28326   1.28903   1.30252
 Alpha virt. eigenvalues --    1.31966   1.33117   1.34507   1.35080   1.36294
 Alpha virt. eigenvalues --    1.36764   1.37808   1.38419   1.38837   1.39538
 Alpha virt. eigenvalues --    1.39887   1.40150   1.40746   1.41316   1.42054
 Alpha virt. eigenvalues --    1.43270   1.43389   1.44205   1.45483   1.47246
 Alpha virt. eigenvalues --    1.48055   1.49428   1.49767   1.50219   1.50658
 Alpha virt. eigenvalues --    1.51348   1.52129   1.52917   1.55545   1.58724
 Alpha virt. eigenvalues --    1.59582   1.60031   1.60939   1.61648   1.62289
 Alpha virt. eigenvalues --    1.62602   1.62956   1.63466   1.64469   1.65708
 Alpha virt. eigenvalues --    1.66343   1.66984   1.67504   1.67966   1.68662
 Alpha virt. eigenvalues --    1.69046   1.69754   1.70188   1.71009   1.72463
 Alpha virt. eigenvalues --    1.74163   1.74678   1.75514   1.76513   1.78487
 Alpha virt. eigenvalues --    1.81466   1.82865   1.83792   1.85664   1.86491
 Alpha virt. eigenvalues --    1.86508   1.87921   1.88639   1.89073   1.90151
 Alpha virt. eigenvalues --    1.91270   1.94373   1.95019   1.98997   1.99712
 Alpha virt. eigenvalues --    2.01569   2.03832   2.05703   2.06799   2.09414
 Alpha virt. eigenvalues --    2.10096   2.11534   2.15746   2.17441   2.19597
 Alpha virt. eigenvalues --    2.20420   2.21184   2.22099   2.22928   2.26379
 Alpha virt. eigenvalues --    2.26943   2.27401   2.29208   2.31094   2.32241
 Alpha virt. eigenvalues --    2.33568   2.34360   2.36859   2.37788   2.39219
 Alpha virt. eigenvalues --    2.39324   2.40228   2.41365   2.42729   2.45035
 Alpha virt. eigenvalues --    2.45654   2.47577   2.48847   2.49546   2.51240
 Alpha virt. eigenvalues --    2.52431   2.54069   2.54517   2.56350   2.57355
 Alpha virt. eigenvalues --    2.58663   2.60864   2.61837   2.62387   2.63351
 Alpha virt. eigenvalues --    2.64694   2.65434   2.66527   2.67374   2.68370
 Alpha virt. eigenvalues --    2.71581   2.71905   2.73894   2.74654   2.75338
 Alpha virt. eigenvalues --    2.76566   2.77058   2.77532   2.78238   2.78832
 Alpha virt. eigenvalues --    2.80691   2.81591   2.83140   2.83788   2.85087
 Alpha virt. eigenvalues --    2.85446   2.86361   2.88808   2.89013   2.92060
 Alpha virt. eigenvalues --    2.97301   2.98625   3.00974   3.06963   3.10667
 Alpha virt. eigenvalues --    3.12211   3.14054   3.18050   3.19221   3.21425
 Alpha virt. eigenvalues --    3.22263   3.23368   3.25108   3.25904   3.26472
 Alpha virt. eigenvalues --    3.29069   3.30271   3.32260   3.34624   3.36543
 Alpha virt. eigenvalues --    3.38211   3.38710   3.39279   3.39496   3.41571
 Alpha virt. eigenvalues --    3.41979   3.43853   3.44826   3.47652   3.48313
 Alpha virt. eigenvalues --    3.49723   3.50187   3.55952   3.58362   3.59910
 Alpha virt. eigenvalues --    3.61312   3.91021   4.00755   4.33098   4.36144
 Alpha virt. eigenvalues --   21.68156  21.80809  22.07916  22.10192  22.11517
 Alpha virt. eigenvalues --   22.14699  22.15034  22.17701  22.19077  22.25016
 Alpha virt. eigenvalues --   22.27255  31.91298  43.64054  43.66881
          Condensed to atoms (all electrons):
               1          2          3          4          5          6
     1  O    7.930346   0.000000  -0.000170   0.000019   0.019618   0.008482
     2  O    0.000000   7.981331   0.000380   0.000013  -0.193140   0.001390
     3  N   -0.000170   0.000380   6.363208   0.368682  -0.121124   0.329091
     4  H    0.000019   0.000013   0.368682   0.413035   0.016085  -0.045727
     5  C    0.019618  -0.193140  -0.121124   0.016085   7.190861  -0.080812
     6  C    0.008482   0.001390   0.329091  -0.045727  -0.080812   5.557188
     7  C   -0.000052  -0.050081   0.394140  -0.036610   0.476413  -0.132203
     8  C   -0.000771   0.699596   0.004176  -0.000896  -0.363321   0.034558
     9  C   -0.000988   0.027773   0.015364   0.000184  -0.738706  -0.039981
    10  H    0.008113   0.000011  -0.001166   0.000024  -0.110740   0.028890
    11  H    0.008442   0.000115   0.003377   0.000039  -0.070969  -0.019172
    12  C   -0.231982  -0.003293  -0.088070   0.014378   0.195262  -0.056522
    13  C    0.714275  -0.000014   0.001665   0.000577   0.085084   0.115078
    14  C   -0.000007  -0.005697  -0.032620  -0.010522  -0.086983   0.010495
    15  H   -0.000000   0.004132   0.004539   0.002323   0.022197   0.006354
    16  H    0.000000   0.002272  -0.000530   0.000801  -0.005568  -0.001340
    17  H   -0.000000   0.003646  -0.001923   0.000910  -0.009915  -0.001227
    18  C    0.000308  -0.099218  -0.000485   0.000021  -0.247842  -0.000074
    19  H    0.000000   0.007256   0.000007  -0.000001   0.023950   0.000014
    20  H    0.000183   0.004311   0.000108   0.000001   0.045587  -0.001252
    21  H   -0.000008   0.000691   0.000011  -0.000001   0.001976   0.000184
    22  C   -0.105611   0.000000  -0.000235   0.000118   0.003806  -0.025534
    23  H    0.001405   0.000000   0.000025  -0.000011  -0.000016   0.008106
    24  H    0.005115  -0.000000   0.000212  -0.000057  -0.000747  -0.024419
    25  H    0.006489   0.000000   0.000020  -0.000003  -0.000130  -0.000799
    26  C    0.000735   0.000011  -0.025425  -0.006677   0.000631   0.197976
    27  H   -0.000053  -0.000000  -0.002384   0.000505   0.000365  -0.032124
    28  H   -0.000221  -0.000000   0.000883   0.000709   0.000095  -0.048735
    29  H    0.000022   0.000000   0.002023   0.002189  -0.000316  -0.048367
               7          8          9         10         11         12
     1  O   -0.000052  -0.000771  -0.000988   0.008113   0.008442  -0.231982
     2  O   -0.050081   0.699596   0.027773   0.000011   0.000115  -0.003293
     3  N    0.394140   0.004176   0.015364  -0.001166   0.003377  -0.088070
     4  H   -0.036610  -0.000896   0.000184   0.000024   0.000039   0.014378
     5  C    0.476413  -0.363321  -0.738706  -0.110740  -0.070969   0.195262
     6  C   -0.132203   0.034558  -0.039981   0.028890  -0.019172  -0.056522
     7  C    5.420428  -0.244084  -0.228880   0.015154  -0.006230   0.030337
     8  C   -0.244084   5.425880   0.226133  -0.009743  -0.000364  -0.054869
     9  C   -0.228880   0.226133   6.437688   0.529933   0.435201  -0.150474
    10  H    0.015154  -0.009743   0.529933   0.541262  -0.051899  -0.108053
    11  H   -0.006230  -0.000364   0.435201  -0.051899   0.582529  -0.015552
    12  C    0.030337  -0.054869  -0.150474  -0.108053  -0.015552   7.380329
    13  C    0.020597  -0.009971  -0.231456  -0.000653  -0.008854  -0.513787
    14  C    0.294184  -0.031105   0.004385   0.000406  -0.000678   0.000851
    15  H   -0.086845   0.005353   0.000916  -0.000003   0.000039  -0.001696
    16  H   -0.023448  -0.006583  -0.000308  -0.000054   0.000171   0.000241
    17  H   -0.018877  -0.001575   0.000980   0.000062  -0.000060   0.000250
    18  C   -0.002048   0.326945  -0.000363   0.007252  -0.014579  -0.000066
    19  H    0.000192  -0.053157  -0.002362   0.000578   0.000148  -0.000147
    20  H    0.004334  -0.072925  -0.007615  -0.007819   0.003159   0.007142
    21  H   -0.000434  -0.024279  -0.009640  -0.000393   0.000694  -0.002364
    22  C    0.000145  -0.000062   0.010626  -0.001602   0.003682  -0.247836
    23  H   -0.000009   0.000001  -0.002096  -0.000133   0.000180  -0.011204
    24  H   -0.000023   0.000011   0.002505   0.000120  -0.000240   0.065686
    25  H    0.000011   0.000002   0.000247  -0.000013  -0.000112   0.019016
    26  C    0.002572   0.000861   0.021418   0.000182  -0.000719  -0.086042
    27  H   -0.000816  -0.000015  -0.000520   0.000037  -0.000006  -0.017341
    28  H   -0.000760   0.000001   0.000003   0.000013  -0.000098  -0.007483
    29  H    0.002992  -0.000002  -0.000495  -0.000015   0.000082   0.023084
              13         14         15         16         17         18
     1  O    0.714275  -0.000007  -0.000000   0.000000  -0.000000   0.000308
     2  O   -0.000014  -0.005697   0.004132   0.002272   0.003646  -0.099218
     3  N    0.001665  -0.032620   0.004539  -0.000530  -0.001923  -0.000485
     4  H    0.000577  -0.010522   0.002323   0.000801   0.000910   0.000021
     5  C    0.085084  -0.086983   0.022197  -0.005568  -0.009915  -0.247842
     6  C    0.115078   0.010495   0.006354  -0.001340  -0.001227  -0.000074
     7  C    0.020597   0.294184  -0.086845  -0.023448  -0.018877  -0.002048
     8  C   -0.009971  -0.031105   0.005353  -0.006583  -0.001575   0.326945
     9  C   -0.231456   0.004385   0.000916  -0.000308   0.000980  -0.000363
    10  H   -0.000653   0.000406  -0.000003  -0.000054   0.000062   0.007252
    11  H   -0.008854  -0.000678   0.000039   0.000171  -0.000060  -0.014579
    12  C   -0.513787   0.000851  -0.001696   0.000241   0.000250  -0.000066
    13  C    5.598618   0.000140  -0.000043  -0.000005  -0.000006   0.001501
    14  C    0.000140   5.023673   0.390415   0.414387   0.408063   0.000952
    15  H   -0.000043   0.390415   0.581601  -0.027391  -0.025735   0.000224
    16  H   -0.000005   0.414387  -0.027391   0.508276  -0.025684  -0.000169
    17  H   -0.000006   0.408063  -0.025735  -0.025684   0.504306   0.000123
    18  C    0.001501   0.000952   0.000224  -0.000169   0.000123   5.303790
    19  H   -0.000012   0.000030  -0.000004   0.000039  -0.000037   0.397110
    20  H    0.000978   0.000105  -0.000014  -0.000028  -0.000001   0.379747
    21  H   -0.000157  -0.000189  -0.000005   0.000010  -0.000008   0.400943
    22  C    0.272981  -0.000007   0.000002  -0.000000  -0.000000   0.000032
    23  H   -0.021287  -0.000001   0.000000  -0.000000   0.000000  -0.000002
    24  H   -0.100745   0.000003   0.000000  -0.000000   0.000000   0.000001
    25  H   -0.033338   0.000000   0.000000   0.000000  -0.000000  -0.000001
    26  C   -0.053391   0.000458   0.000311   0.000006  -0.000063   0.000005
    27  H    0.006738  -0.000091  -0.000006   0.000004  -0.000005  -0.000000
    28  H   -0.001757   0.000045  -0.000007  -0.000002   0.000001   0.000000
    29  H   -0.001430  -0.000106   0.000097  -0.000002  -0.000001  -0.000000
              19         20         21         22         23         24
     1  O    0.000000   0.000183  -0.000008  -0.105611   0.001405   0.005115
     2  O    0.007256   0.004311   0.000691   0.000000   0.000000  -0.000000
     3  N    0.000007   0.000108   0.000011  -0.000235   0.000025   0.000212
     4  H   -0.000001   0.000001  -0.000001   0.000118  -0.000011  -0.000057
     5  C    0.023950   0.045587   0.001976   0.003806  -0.000016  -0.000747
     6  C    0.000014  -0.001252   0.000184  -0.025534   0.008106  -0.024419
     7  C    0.000192   0.004334  -0.000434   0.000145  -0.000009  -0.000023
     8  C   -0.053157  -0.072925  -0.024279  -0.000062   0.000001   0.000011
     9  C   -0.002362  -0.007615  -0.009640   0.010626  -0.002096   0.002505
    10  H    0.000578  -0.007819  -0.000393  -0.001602  -0.000133   0.000120
    11  H    0.000148   0.003159   0.000694   0.003682   0.000180  -0.000240
    12  C   -0.000147   0.007142  -0.002364  -0.247836  -0.011204   0.065686
    13  C   -0.000012   0.000978  -0.000157   0.272981  -0.021287  -0.100745
    14  C    0.000030   0.000105  -0.000189  -0.000007  -0.000001   0.000003
    15  H   -0.000004  -0.000014  -0.000005   0.000002   0.000000   0.000000
    16  H    0.000039  -0.000028   0.000010  -0.000000  -0.000000  -0.000000
    17  H   -0.000037  -0.000001  -0.000008  -0.000000   0.000000   0.000000
    18  C    0.397110   0.379747   0.400943   0.000032  -0.000002   0.000001
    19  H    0.508983  -0.025249  -0.010101  -0.000000   0.000000   0.000000
    20  H   -0.025249   0.540496  -0.022940   0.000036  -0.000000  -0.000001
    21  H   -0.010101  -0.022940   0.491361  -0.000011   0.000000   0.000000
    22  C   -0.000000   0.000036  -0.000011   5.435716   0.399708   0.396253
    23  H    0.000000  -0.000000   0.000000   0.399708   0.495904  -0.027979
    24  H    0.000000  -0.000001   0.000000   0.396253  -0.027979   0.550072
    25  H   -0.000000  -0.000000   0.000000   0.381426  -0.008038  -0.022421
    26  C    0.000000  -0.000017   0.000002  -0.033972  -0.009728   0.016310
    27  H    0.000000   0.000000  -0.000000  -0.010681   0.000833  -0.001881
    28  H   -0.000000  -0.000000   0.000000   0.003476   0.000198  -0.006886
    29  H    0.000000   0.000000  -0.000000   0.002107   0.000160   0.000575
              25         26         27         28         29
     1  O    0.006489   0.000735  -0.000053  -0.000221   0.000022
     2  O    0.000000   0.000011  -0.000000  -0.000000   0.000000
     3  N    0.000020  -0.025425  -0.002384   0.000883   0.002023
     4  H   -0.000003  -0.006677   0.000505   0.000709   0.002189
     5  C   -0.000130   0.000631   0.000365   0.000095  -0.000316
     6  C   -0.000799   0.197976  -0.032124  -0.048735  -0.048367
     7  C    0.000011   0.002572  -0.000816  -0.000760   0.002992
     8  C    0.000002   0.000861  -0.000015   0.000001  -0.000002
     9  C    0.000247   0.021418  -0.000520   0.000003  -0.000495
    10  H   -0.000013   0.000182   0.000037   0.000013  -0.000015
    11  H   -0.000112  -0.000719  -0.000006  -0.000098   0.000082
    12  C    0.019016  -0.086042  -0.017341  -0.007483   0.023084
    13  C   -0.033338  -0.053391   0.006738  -0.001757  -0.001430
    14  C    0.000000   0.000458  -0.000091   0.000045  -0.000106
    15  H    0.000000   0.000311  -0.000006  -0.000007   0.000097
    16  H    0.000000   0.000006   0.000004  -0.000002  -0.000002
    17  H   -0.000000  -0.000063  -0.000005   0.000001  -0.000001
    18  C   -0.000001   0.000005  -0.000000   0.000000  -0.000000
    19  H   -0.000000   0.000000   0.000000  -0.000000   0.000000
    20  H   -0.000000  -0.000017   0.000000  -0.000000   0.000000
    21  H    0.000000   0.000002  -0.000000   0.000000  -0.000000
    22  C    0.381426  -0.033972  -0.010681   0.003476   0.002107
    23  H   -0.008038  -0.009728   0.000833   0.000198   0.000160
    24  H   -0.022421   0.016310  -0.001881  -0.006886   0.000575
    25  H    0.493322   0.001963   0.000126   0.000536  -0.000034
    26  C    0.001963   5.230940   0.425801   0.433180   0.386782
    27  H    0.000126   0.425801   0.481362  -0.028185  -0.016719
    28  H    0.000536   0.433180  -0.028185   0.504056  -0.024429
    29  H   -0.000034   0.386782  -0.016719  -0.024429   0.518377
 Mulliken charges:
               1
     1  O   -0.363691
     2  O   -0.381486
     3  N   -0.213780
     4  H    0.279892
     5  C   -0.051601
     6  C    0.260482
     7  C    0.169901
     8  C    0.150203
     9  C   -0.299474
    10  H    0.160250
    11  H    0.151674
    12  C   -0.139795
    13  C    0.158675
    14  C   -0.380584
    15  H    0.123248
    16  H    0.164906
    17  H    0.166776
    18  C   -0.454108
    19  H    0.152762
    20  H    0.151672
    21  H    0.174657
    22  C   -0.484563
    23  H    0.173982
    24  H    0.148533
    25  H    0.161730
    26  C   -0.504110
    27  H    0.195055
    28  H    0.175366
    29  H    0.153428
 Sum of Mulliken charges =  -0.00000
 Mulliken charges with hydrogens summed into heavy atoms:
               1
     1  O   -0.363691
     2  O   -0.381486
     3  N    0.066112
     5  C   -0.051601
     6  C    0.260482
     7  C    0.169901
     8  C    0.150203
     9  C    0.012450
    12  C   -0.139795
    13  C    0.158675
    14  C    0.074346
    18  C    0.024983
    22  C   -0.000318
    26  C    0.019739
 Electronic spatial extent (au):  <R**2>=           3208.6702
 Charge=             -0.0000 electrons
 Dipole moment (field-independent basis, Debye):
    X=              4.0711    Y=              7.6198    Z=              0.2264  Tot=              8.6421
 Quadrupole moment (field-independent basis, Debye-Ang):
   XX=            -98.3687   YY=            -78.1330   ZZ=            -84.9240
   XY=             12.1927   XZ=              3.7494   YZ=             -2.3715
 Traceless Quadrupole moment (field-independent basis, Debye-Ang):
   XX=            -11.2268   YY=              9.0089   ZZ=              2.2179
   XY=             12.1927   XZ=              3.7494   YZ=             -2.3715
 Octapole moment (field-independent basis, Debye-Ang**2):
  XXX=            111.6632  YYY=             64.9151  ZZZ=              1.0911  XYY=            -34.6300
  XXY=             32.4636  XXZ=             -3.7877  XZZ=              0.2936  YZZ=             -1.2097
  YYZ=              4.8888  XYZ=             -5.2003
 Hexadecapole moment (field-independent basis, Debye-Ang**3):
 XXXX=          -3073.7994 YYYY=          -1297.5390 ZZZZ=           -141.2599 XXXY=             31.0137
 XXXZ=             39.9841 YYYX=             87.2855 YYYZ=            -19.2432 ZZZX=             -3.7852
 ZZZY=              1.6681 XXYY=           -691.8341 XXZZ=           -478.9520 YYZZ=           -245.7655
 XXYZ=            -10.8036 YYXZ=             10.1819 ZZXY=              0.1830
 N-N= 8.988034859630D+02 E-N=-3.273524210231D+03  KE= 6.306149545794D+02
 Leave Link  601 at Fri Jan 23 15:19:42 2026, MaxMem=  2147483648 cpu:               0.7 elap:               0.1
 (Enter /data/home/wyx/g16/l9999.exe)
 Electronic transition elements 
                 1             2             3             4             5 
      1  -0.633213D+03 -0.633176D+03 -0.633169D+03 -0.633142D+03 -0.633126D+03
      2   0.158786D+01  0.121756D-01 -0.953322D-01 -0.385766D+00  0.448355D+00
      3   0.377795D+00 -0.414211D-01  0.669334D-01  0.167935D+01 -0.148816D+01
      4   0.126875D+00  0.369838D-01 -0.343368D-01 -0.997018D-01  0.560416D-01
      5  -0.161882D+00 -0.236140D-02  0.131414D-01  0.593485D-01 -0.841355D-01
      6  -0.418952D-01  0.617498D-02 -0.810670D-02 -0.286627D+00  0.282568D+00
      7  -0.125343D-01 -0.213427D-02  0.169350D-02  0.138343D-01 -0.115026D-01
      8  -0.130522D+00  0.778652D+00  0.523631D+00 -0.271397D-01  0.938839D-01
      9  -0.411153D-01  0.154132D+00 -0.845394D+00  0.467950D-01 -0.584933D-01
     10   0.147346D+01  0.111123D-01 -0.158181D+00 -0.708443D-01  0.288949D+00
     11  -0.159037D+00  0.293922D-01 -0.152908D-03  0.118565D+01 -0.519024D+00
     12   0.242335D+00 -0.869569D-02 -0.395951D-01 -0.137852D+00  0.350672D+00
     13  -0.125400D-01 -0.149102D-01  0.295744D-01 -0.185601D-01  0.365964D-01
     14   0.449921D+00 -0.395352D-02 -0.682186D-01  0.448214D+00 -0.587035D-01
     15  -0.387474D-01 -0.132566D-01  0.541460D-01  0.575964D-01 -0.555449D-02
     16   0.223278D-01  0.740415D-01  0.235475D-01  0.522360D-01  0.110256D-01
                 6 
      1  -0.633109D+03
      2   0.590071D-01
      3  -0.195600D+00
      4  -0.334674D-01
      5  -0.128412D-01
      6   0.399704D-01
      7   0.273813D-01
      8  -0.537950D-01
      9  -0.540756D-02
     10  -0.461602D-01
     11   0.117585D+00
     12   0.121276D+00
     13  -0.102439D+00
     14  -0.483013D-02
     15   0.409835D-01
     16  -0.126906D+00
 1\1\GINC-CN012\SP\RCAM-B3LYP TD-FC\TZVP\C11H15N1O2\WYX\23-Jan-2026\0\\
 #p CAM-B3LYP TZVP em=gd3bj td(Eqsolv,nstates=6,root=1) scrf=(Solvent=T
 etraHydroFuran) Geom=Check Guess=Read\\Title Card Required\\0,1\O,0,2.
 839936,-1.57412,0.027537\O,0,-3.429685,-1.651347,-0.161017\N,0,-0.6677
 12,1.518274,-0.169335\H,0,-0.979804,2.479216,-0.218446\C,0,-1.249328,-
 0.763224,-0.19906\C,0,0.677005,1.338226,-0.016181\C,0,-1.641231,0.5816
 56,-0.233331\C,0,-2.210752,-1.848225,-0.190288\C,0,0.192015,-1.080167,
 -0.17551\H,0,0.400774,-1.882018,0.542703\H,0,0.477238,-1.570612,-1.125
 705\C,0,1.14707,0.026047,0.046437\C,0,2.518271,-0.402673,0.26487\C,0,-
 3.030519,1.106595,-0.353814\H,0,-3.026178,2.192805,-0.442962\H,0,-3.53
 4303,0.689224,-1.222287\H,0,-3.633018,0.832991,0.509189\C,0,-1.705963,
 -3.270732,-0.184436\H,0,-2.508783,-3.926567,-0.507959\H,0,-0.840672,-3
 .427047,-0.823427\H,0,-1.42028,-3.564684,0.827007\C,0,3.569453,0.52623
 3,0.82321\H,0,4.074471,1.064055,0.017929\H,0,3.169884,1.257045,1.52152
 1\H,0,4.31354,-0.085163,1.3294\C,0,1.470134,2.602425,0.024857\H,0,1.73
 3665,2.89598,1.042272\H,0,2.392356,2.511685,-0.541809\H,0,0.902417,3.4
 24121,-0.411365\\Version=ES64L-G16RevA.03\State=1-A\HF=-633.319656\RMS
 D=3.913e-09\PG=C01 [X(C11H15N1O2)]\\@


 HAPPINESS IS NOT HAVING WHAT YOU WANT --
 HAPPINESS IS WANTING WHAT YOU HAVE!

              -- FROM MRS. SEVERN'S DESK
 Job cpu time:       0 days  0 hours 31 minutes  8.8 seconds.
 Elapsed time:       0 days  0 hours  1 minutes 57.7 seconds.
 File lengths (MBytes):  RWF=    734 Int=      0 D2E=      0 Chk=     67 Scr=      1
 Normal termination of Gaussian 16 at Fri Jan 23 15:19:45 2026.
