 Entering Gaussian System, Link 0=g16
 Input=DDL-S1-cLR-gs-15.gjf
 Output=DDL-S1-cLR-gs-15.log
 Initial command:
 /data/home/wyx/g16/l1.exe "/scr/tmp/wyx/13106/Gau-1988806.inp" -scrdir="/scr/tmp/wyx/13106/"
 Entering Link 1 = /data/home/wyx/g16/l1.exe PID=   1988807.
  
 Copyright (c) 1988,1990,1992,1993,1995,1998,2003,2009,2016,
            Gaussian, Inc.  All Rights Reserved.
  
 This is part of the Gaussian(R) 16 program.  It is based on
 the Gaussian(R) 09 system (copyright 2009, Gaussian, Inc.),
 the Gaussian(R) 03 system (copyright 2003, Gaussian, Inc.),
 the Gaussian(R) 98 system (copyright 1998, Gaussian, Inc.),
 the Gaussian(R) 94 system (copyright 1995, Gaussian, Inc.),
 the Gaussian 92(TM) system (copyright 1992, Gaussian, Inc.),
 the Gaussian 90(TM) system (copyright 1990, Gaussian, Inc.),
 the Gaussian 88(TM) system (copyright 1988, Gaussian, Inc.),
 the Gaussian 86(TM) system (copyright 1986, Carnegie Mellon
 University), and the Gaussian 82(TM) system (copyright 1983,
 Carnegie Mellon University). Gaussian is a federally registered
 trademark of Gaussian, Inc.
  
 This software contains proprietary and confidential information,
 including trade secrets, belonging to Gaussian, Inc.
  
 This software is provided under written license and may be
 used, copied, transmitted, or stored only in accord with that
 written license.
  
 The following legend is applicable only to US Government
 contracts under FAR:
  
                    RESTRICTED RIGHTS LEGEND
  
 Use, reproduction and disclosure by the US Government is
 subject to restrictions as set forth in subparagraphs (a)
 and (c) of the Commercial Computer Software - Restricted
 Rights clause in FAR 52.227-19.
  
 Gaussian, Inc.
 340 Quinnipiac St., Bldg. 40, Wallingford CT 06492
  
  
 ---------------------------------------------------------------
 Warning -- This program may not be used in any manner that
 competes with the business of Gaussian, Inc. or will provide
 assistance to any competitor of Gaussian, Inc.  The licensee
 of this program is prohibited from giving any competitor of
 Gaussian, Inc. access to this program.  By using this program,
 the user acknowledges that Gaussian, Inc. is engaged in the
 business of creating and licensing software in the field of
 computational chemistry and represents and warrants to the
 licensee that it is not a competitor of Gaussian, Inc. and that
 it will not use this program in any manner prohibited above.
 ---------------------------------------------------------------
  

 Cite this work as:
 Gaussian 16, Revision A.03,
 M. J. Frisch, G. W. Trucks, H. B. Schlegel, G. E. Scuseria, 
 M. A. Robb, J. R. Cheeseman, G. Scalmani, V. Barone, 
 G. A. Petersson, H. Nakatsuji, X. Li, M. Caricato, A. V. Marenich, 
 J. Bloino, B. G. Janesko, R. Gomperts, B. Mennucci, H. P. Hratchian, 
 J. V. Ortiz, A. F. Izmaylov, J. L. Sonnenberg, D. Williams-Young, 
 F. Ding, F. Lipparini, F. Egidi, J. Goings, B. Peng, A. Petrone, 
 T. Henderson, D. Ranasinghe, V. G. Zakrzewski, J. Gao, N. Rega, 
 G. Zheng, W. Liang, M. Hada, M. Ehara, K. Toyota, R. Fukuda, 
 J. Hasegawa, M. Ishida, T. Nakajima, Y. Honda, O. Kitao, H. Nakai, 
 T. Vreven, K. Throssell, J. A. Montgomery, Jr., J. E. Peralta, 
 F. Ogliaro, M. J. Bearpark, J. J. Heyd, E. N. Brothers, K. N. Kudin, 
 V. N. Staroverov, T. A. Keith, R. Kobayashi, J. Normand, 
 K. Raghavachari, A. P. Rendell, J. C. Burant, S. S. Iyengar, 
 J. Tomasi, M. Cossi, J. M. Millam, M. Klene, C. Adamo, R. Cammi, 
 J. W. Ochterski, R. L. Martin, K. Morokuma, O. Farkas, 
 J. B. Foresman, and D. J. Fox, Gaussian, Inc., Wallingford CT, 2016.
 
 ******************************************
 Gaussian 16:  ES64L-G16RevA.03 25-Dec-2016
                23-Jan-2026 
 ******************************************
 %nprocshared=16
 Will use up to   16 processors via shared memory.
 %mem=16GB
 %oldchk=DDL-S1-cLR-15.chk
 %chk=DDL-S1-cLR-gs-15.chk
 Copying data from "DDL-S1-cLR-15.chk" to current chk file "DDL-S1-cLR-gs-15.chk"
 IOpt=  2 FromEx=T IUOpen= 4 IOptOp= 5 NList=   0 IFRang= 0 IUIn= 4 IUOut= 2.
 ----------------------------------------------------------------------
 #p CAM-B3LYP TZVP em=gd3bj scrf=(Solvent=TetraHydroFuran,NonEquilibriu
 m=Read) Geom=Check Guess=Read
 ----------------------------------------------------------------------
 1/29=2,38=1,172=1/1;
 2/12=2,40=1/2;
 3/5=19,7=101,11=2,14=-4,25=1,30=1,70=6002201,72=20,74=-40,116=-2,124=41/1,2,3;
 4/5=1/1;
 5/5=2,38=6,53=20/2;
 6/7=2,8=2,9=2,10=2,28=1/1;
 99/5=1,9=1/99;
 Leave Link    1 at Fri Jan 23 22:54:38 2026, MaxMem=  2147483648 cpu:               0.9 elap:               0.1
 (Enter /data/home/wyx/g16/l101.exe)
 -------------------
 Title Card Required
 -------------------
 Structure from the checkpoint file:  "DDL-S1-cLR-gs-15.chk"
 Charge =  0 Multiplicity = 1
 Z-Matrix found in chk file.
 O,0,2.834769,-1.563886,0.161385
 O,0,-3.418074,-1.618637,0.094504
 N,0,-0.632321,1.509615,-0.381216
 H,0,-0.940976,2.46667,-0.435865
 C,0,-1.236512,-0.757182,-0.225422
 C,0,0.703177,1.296323,-0.113137
 C,0,-1.608964,0.543817,-0.297362
 C,0,-2.224821,-1.826886,-0.092604
 C,0,0.222077,-1.114544,-0.368954
 H,0,0.47334,-1.962353,0.265024
 H,0,0.434632,-1.459386,-1.389975
 C,0,1.151779,0.022178,-0.018677
 C,0,2.512064,-0.393041,0.330576
 C,0,-3.000627,1.08645,-0.292964
 H,0,-3.003224,2.136355,-0.584761
 H,0,-3.643933,0.525716,-0.963633
 H,0,-3.44185,1.001786,0.699085
 C,0,-1.731415,-3.248389,-0.190817
 H,0,-2.583883,-3.918704,-0.249238
 H,0,-1.087711,-3.394883,-1.057463
 H,0,-1.14225,-3.505898,0.690741
 C,0,3.528726,0.544907,0.935674
 H,0,4.044357,1.101933,0.151503
 H,0,3.091794,1.258574,1.629308
 H,0,4.268339,-0.060731,1.453982
 C,0,1.468319,2.575425,0.034916
 H,0,1.502689,2.892012,1.078205
 H,0,2.483846,2.496586,-0.332097
 H,0,0.976655,3.366175,-0.530715
 Recover connectivity data from disk.
 ITRead=  0  0  0  0  0  0  0  0  0  0  0  0  0  0  0  0  0  0  0  0
 ITRead=  0  0  0  0  0  0  0  0  0
 MicOpt= -1 -1 -1 -1 -1 -1 -1 -1 -1 -1 -1 -1 -1 -1 -1 -1 -1 -1 -1 -1
 MicOpt= -1 -1 -1 -1 -1 -1 -1 -1 -1
 NAtoms=     29 NQM=       29 NQMF=       0 NMMI=      0 NMMIF=      0
                NMic=       0 NMicF=      0.
                    Isotopes and Nuclear Properties:
 (Nuclear quadrupole moments (NQMom) in fm**2, nuclear magnetic moments (NMagM)
  in nuclear magnetons)

  Atom         1           2           3           4           5           6           7           8           9          10
 IAtWgt=          16          16          14           1          12          12          12          12          12           1
 AtmWgt=  15.9949146  15.9949146  14.0030740   1.0078250  12.0000000  12.0000000  12.0000000  12.0000000  12.0000000   1.0078250
 NucSpn=           0           0           2           1           0           0           0           0           0           1
 AtZEff=   5.6000000   5.6000000   4.5500000   1.0000000   3.6000000   3.6000000   3.6000000   3.6000000   3.6000000   1.0000000
 NQMom=    0.0000000   0.0000000   2.0440000   0.0000000   0.0000000   0.0000000   0.0000000   0.0000000   0.0000000   0.0000000
 NMagM=    0.0000000   0.0000000   0.4037610   2.7928460   0.0000000   0.0000000   0.0000000   0.0000000   0.0000000   2.7928460
 AtZNuc=   8.0000000   8.0000000   7.0000000   1.0000000   6.0000000   6.0000000   6.0000000   6.0000000   6.0000000   1.0000000

  Atom        11          12          13          14          15          16          17          18          19          20
 IAtWgt=           1          12          12          12           1           1           1          12           1           1
 AtmWgt=   1.0078250  12.0000000  12.0000000  12.0000000   1.0078250   1.0078250   1.0078250  12.0000000   1.0078250   1.0078250
 NucSpn=           1           0           0           0           1           1           1           0           1           1
 AtZEff=   1.0000000   3.6000000   3.6000000   3.6000000   1.0000000   1.0000000   1.0000000   3.6000000   1.0000000   1.0000000
 NQMom=    0.0000000   0.0000000   0.0000000   0.0000000   0.0000000   0.0000000   0.0000000   0.0000000   0.0000000   0.0000000
 NMagM=    2.7928460   0.0000000   0.0000000   0.0000000   2.7928460   2.7928460   2.7928460   0.0000000   2.7928460   2.7928460
 AtZNuc=   1.0000000   6.0000000   6.0000000   6.0000000   1.0000000   1.0000000   1.0000000   6.0000000   1.0000000   1.0000000

  Atom        21          22          23          24          25          26          27          28          29
 IAtWgt=           1          12           1           1           1          12           1           1           1
 AtmWgt=   1.0078250  12.0000000   1.0078250   1.0078250   1.0078250  12.0000000   1.0078250   1.0078250   1.0078250
 NucSpn=           1           0           1           1           1           0           1           1           1
 AtZEff=   1.0000000   3.6000000   1.0000000   1.0000000   1.0000000   3.6000000   1.0000000   1.0000000   1.0000000
 NQMom=    0.0000000   0.0000000   0.0000000   0.0000000   0.0000000   0.0000000   0.0000000   0.0000000   0.0000000
 NMagM=    2.7928460   0.0000000   2.7928460   2.7928460   2.7928460   0.0000000   2.7928460   2.7928460   2.7928460
 AtZNuc=   1.0000000   6.0000000   1.0000000   1.0000000   1.0000000   6.0000000   1.0000000   1.0000000   1.0000000
 Leave Link  101 at Fri Jan 23 22:54:42 2026, MaxMem=  2147483648 cpu:               0.9 elap:               0.1
 (Enter /data/home/wyx/g16/l202.exe)
                          Input orientation:                          
 ---------------------------------------------------------------------
 Center     Atomic      Atomic             Coordinates (Angstroms)
 Number     Number       Type             X           Y           Z
 ---------------------------------------------------------------------
      1          8           0        2.834769   -1.563886    0.161385
      2          8           0       -3.418074   -1.618637    0.094504
      3          7           0       -0.632321    1.509615   -0.381216
      4          1           0       -0.940976    2.466670   -0.435865
      5          6           0       -1.236512   -0.757182   -0.225422
      6          6           0        0.703177    1.296323   -0.113137
      7          6           0       -1.608964    0.543817   -0.297362
      8          6           0       -2.224821   -1.826886   -0.092604
      9          6           0        0.222077   -1.114544   -0.368954
     10          1           0        0.473340   -1.962353    0.265024
     11          1           0        0.434632   -1.459386   -1.389975
     12          6           0        1.151779    0.022178   -0.018677
     13          6           0        2.512064   -0.393041    0.330576
     14          6           0       -3.000627    1.086450   -0.292964
     15          1           0       -3.003224    2.136355   -0.584761
     16          1           0       -3.643933    0.525716   -0.963633
     17          1           0       -3.441850    1.001786    0.699085
     18          6           0       -1.731415   -3.248389   -0.190817
     19          1           0       -2.583883   -3.918704   -0.249238
     20          1           0       -1.087711   -3.394883   -1.057463
     21          1           0       -1.142250   -3.505898    0.690741
     22          6           0        3.528726    0.544907    0.935674
     23          1           0        4.044357    1.101933    0.151503
     24          1           0        3.091794    1.258574    1.629308
     25          1           0        4.268339   -0.060731    1.453982
     26          6           0        1.468319    2.575425    0.034916
     27          1           0        1.502689    2.892012    1.078205
     28          1           0        2.483846    2.496586   -0.332097
     29          1           0        0.976655    3.366175   -0.530715
 ---------------------------------------------------------------------
                    Distance matrix (angstroms):
                    1          2          3          4          5
     1  O    0.000000
     2  O    6.253440   0.000000
     3  N    4.664926   4.215767   0.000000
     4  H    5.555028   4.806978   1.007079   0.000000
     5  C    4.168419   2.367207   2.351103   3.244202   0.000000
     6  C    3.577687   5.052209   1.378737   2.043797   2.826992
     7  C    4.939598   2.846515   1.376092   2.040283   1.355173
     8  C    5.072783   1.225655   3.708314   4.494520   1.462416
     9  C    2.703577   3.703998   2.759775   3.765935   1.508572
    10  H    2.397053   3.910284   3.700632   4.701891   2.148620
    11  H    2.859772   4.131874   3.312242   4.268084   2.154529
    12  C    2.319585   4.856814   2.350939   3.244874   2.520730
    13  C    1.226231   6.060062   3.743515   4.548501   3.807040
    14  C    6.425151   2.764397   2.407432   2.483463   2.552576
    15  H    6.952027   3.838420   2.460775   2.093835   3.409245
    16  H    6.899687   2.401857   3.221347   3.369246   2.826032
    17  H    6.802039   2.689368   3.052604   3.112614   2.968535
    18  C    4.879716   2.362693   4.887009   5.774664   2.540126
    19  H    5.922463   2.470697   5.769979   6.595982   3.436742
    20  H    4.497109   3.148439   4.971800   5.896246   2.769820
    21  H    4.457388   3.016062   5.154075   6.081227   2.898910
    22  C    2.351193   7.324378   4.469807   5.054951   5.074551
    23  H    2.927421   7.943087   4.724543   5.202024   5.611235
    24  H    3.191730   7.280958   4.239606   4.689101   5.122258
    25  H    2.446509   7.959661   5.463553   6.090668   5.797312
    26  C    4.360857   6.439763   2.392030   2.457268   4.300018
    27  H    4.740256   6.747409   2.932439   2.905998   4.745449
    28  H    4.105375   7.207615   3.269101   3.426524   4.943627
    29  H    5.313858   6.674795   2.461294   2.120239   4.689711
                    6          7          8          9         10
     6  C    0.000000
     7  C    2.438483   0.000000
     8  C    4.281125   2.457934   0.000000
     9  C    2.471675   2.471436   2.563418   0.000000
    10  H    3.288586   3.306532   2.725128   1.088045   0.000000
    11  H    3.048994   3.063154   2.981764   1.098444   1.730172
    12  C    1.354109   2.823380   3.850445   1.509694   2.116395
    13  C    2.514539   4.272573   4.967200   2.500790   2.573603
    14  C    3.714101   1.493719   3.021514   3.903328   4.655641
    15  H    3.829555   2.136056   4.068834   4.584483   5.441327
    16  H    4.496059   2.141342   2.882240   4.241477   4.965080
    17  H    4.234112   2.135910   3.179515   4.363934   4.929832
    18  C    5.156324   3.795678   1.507901   2.898475   2.592802
    19  H    6.166019   4.568028   2.128183   3.968760   3.665841
    20  H    5.109447   4.045098   2.163929   2.718370   2.497598
    21  H    5.207029   4.194563   2.145850   2.950070   2.274620
    22  C    3.106181   5.283582   6.307619   3.922978   4.008929
    23  H    3.357277   5.698510   6.923883   4.448985   4.706899
    24  H    2.956862   5.130308   6.383685   4.226111   4.369433
    25  H    4.124056   6.162416   6.904517   4.561343   4.408152
    26  C    1.497820   3.702366   5.747685   3.915623   4.651275
    27  H    2.145865   4.133835   6.126428   4.448227   5.028487
    28  H    2.158554   4.534932   6.396977   4.261129   4.927558
    29  H    2.129190   3.834786   6.116312   4.546691   5.411075
                   11         12         13         14         15
    11  H    0.000000
    12  C    2.142379   0.000000
    13  C    2.900536   1.464500   0.000000
    14  C    4.414263   4.295391   5.741730   0.000000
    15  H    5.039502   4.696195   6.136293   1.089703   0.000000
    16  H    4.555995   4.913791   6.357310   1.085386   1.774320
    17  H    5.044666   4.751446   6.126209   1.089039   1.768587
    18  C    3.054549   4.363376   5.141204   4.517982   5.546905
    19  H    4.057211   5.434968   6.223758   5.022664   6.078829
    20  H    2.484802   4.215531   4.888362   4.932145   5.872583
    21  H    3.317250   4.267688   4.813897   5.050832   6.076607
    22  C    4.358813   2.614175   1.509799   6.665979   6.892808
    23  H    4.686857   3.092222   2.148240   7.059008   7.161041
    24  H    4.854265   2.829874   2.179593   6.390802   6.543840
    25  H    4.974097   3.447977   2.111154   7.563446   7.865068
    26  C    4.402104   2.573352   3.160476   4.721867   4.535579
    27  H    5.115401   3.092286   3.517010   5.041826   4.862070
    28  H    4.579094   2.827601   2.964772   5.662990   5.504684
    29  H    4.931344   3.387502   4.151025   4.590473   4.165911
                   16         17         18         19         20
    16  H    0.000000
    17  H    1.741296   0.000000
    18  C    4.301028   4.667066   0.000000
    19  H    4.624601   5.083960   1.086019   0.000000
    20  H    4.681257   5.287545   1.089445   1.779367   0.000000
    21  H    5.024866   5.060380   1.091133   1.769823   1.752574
    22  C    7.419890   6.989538   6.582337   7.661059   6.387960
    23  H    7.790081   7.506875   7.238924   8.324719   6.929724
    24  H    7.254684   6.604526   6.847548   7.908631   6.807471
    25  H    8.294144   7.819580   6.990249   8.045984   6.790523
    26  C    5.597636   5.198771   6.648764   7.659948   6.585678
    27  H    6.021310   5.307085   7.055095   8.052827   7.127152
    28  H    6.467831   6.197712   7.126929   8.175860   6.927596
    29  H    5.441090   5.160032   7.155531   8.113330   7.088792
                   21         22         23         24         25
    21  H    0.000000
    22  C    6.187651   0.000000
    23  H    6.958719   1.091365   0.000000
    24  H    6.442688   1.086903   1.765169   0.000000
    25  H    6.459581   1.087413   1.760229   1.776390   0.000000
    26  C    6.650388   3.029793   2.969974   2.629040   4.099168
    27  H    6.933908   3.103875   3.243954   2.344587   4.063092
    28  H    7.086931   2.551092   2.148050   2.397787   3.593656
    29  H    7.294320   4.077121   3.873372   3.685308   5.149552
                   26         27         28         29
    26  C    0.000000
    27  H    1.090807   0.000000
    28  H    1.082686   1.762947   0.000000
    29  H    1.089476   1.757887   1.751359   0.000000
 Stoichiometry    C11H15NO2
 Framework group  C1[X(C11H15NO2)]
 Deg. of freedom    81
 Full point group                 C1      NOp   1
 RotChk:  IX=0 Diff= 6.87D-16
 Largest Abelian subgroup         C1      NOp   1
 Largest concise Abelian subgroup C1      NOp   1
                         Standard orientation:                         
 ---------------------------------------------------------------------
 Center     Atomic      Atomic             Coordinates (Angstroms)
 Number     Number       Type             X           Y           Z
 ---------------------------------------------------------------------
      1          8           0        2.288173   -2.277117   -0.189024
      2          8           0       -3.590662   -0.245161    0.455929
      3          7           0        0.025749    1.801950   -0.253721
      4          1           0        0.054293    2.808609   -0.248223
      5          6           0       -1.289280   -0.139967   -0.088357
      6          6           0        1.230515    1.140379   -0.145196
      7          6           0       -1.206127    1.212645   -0.083923
      8          6           0       -2.562300   -0.826230    0.128730
      9          6           0       -0.058523   -0.952312   -0.406356
     10          1           0       -0.046744   -1.873299    0.172855
     11          1           0       -0.076681   -1.283671   -1.453472
     12          6           0        1.229935   -0.213694   -0.135255
     13          6           0        2.397793   -1.078598    0.045874
     14          6           0       -2.325458    2.185775    0.093026
     15          1           0       -2.002477    3.192857   -0.169502
     16          1           0       -3.183101    1.913962   -0.514121
     17          1           0       -2.669144    2.190814    1.126400
     18          6           0       -2.589674   -2.321824   -0.061575
     19          1           0       -3.619655   -2.665473   -0.039641
     20          1           0       -2.122039   -2.619557   -0.999426
     21          1           0       -2.037958   -2.815170    0.740167
     22          6           0        3.725755   -0.571876    0.555031
     23          1           0        4.318989   -0.170152   -0.268235
     24          1           0        3.625970    0.201633    1.312056
     25          1           0        4.265001   -1.420139    0.969918
     26          6           0        2.392987    2.080342   -0.052517
     27          1           0        2.634975    2.301610    0.987840
     28          1           0        3.280866    1.691396   -0.534804
     29          1           0        2.143647    3.023306   -0.537911
 ---------------------------------------------------------------------
 Rotational constants (GHZ):           1.0786639           0.4907029           0.3470699
 Leave Link  202 at Fri Jan 23 22:54:42 2026, MaxMem=  2147483648 cpu:               0.0 elap:               0.0
 (Enter /data/home/wyx/g16/l301.exe)
 Standard basis: TZVP (5D, 7F)
 Ernie: Thresh=  0.10000D-02 Tol=  0.10000D-05 Strict=F.
 There are   370 symmetry adapted cartesian basis functions of A   symmetry.
 There are   356 symmetry adapted basis functions of A   symmetry.
   356 basis functions,   610 primitive gaussians,   370 cartesian basis functions
    52 alpha electrons       52 beta electrons
       nuclear repulsion energy       900.7859719639 Hartrees.
 IExCor=20419 DFT=T Ex+Corr=CAM-B3LYP ExCW=0 ScaHFX=  1.000000
 ScaDFX=  1.000000  1.000000  1.000000  0.810000 ScalE2=  1.000000  1.000000
 IRadAn=      5 IRanWt=     -1 IRanGd=            0 ICorTp=0 IEmpDi=141
 HFx  wShort=  0.000000 wLong=  0.330000 cFull=  0.190000 cShort=  0.000000 cLong=  0.460000
 DFx  wShort=  0.000000 wLong=  0.330000 cFull=  0.190000 cShort=  0.000000 cLong=  0.460000
 NAtoms=   29 NActive=   29 NUniq=   29 SFac= 1.00D+00 NAtFMM=   60 NAOKFM=F Big=F
 Integral buffers will be    131072 words long.
 Raffenetti 2 integral format.
 Two-electron integral symmetry is turned on.
 R6Disp:  Grimme-D3(BJ) Dispersion energy=       -0.0262092189 Hartrees.
 Nuclear repulsion after empirical dispersion term =      900.7597627450 Hartrees.
 ------------------------------------------------------------------------------
 Polarizable Continuum Model (PCM)
 =================================
 Model                : PCM.
 Atomic radii         : UFF (Universal Force Field).
 Polarization charges : Total charges.
 Charge compensation  : None.
 Solution method      : On-the-fly selection.
 Cavity type          : Scaled VdW (van der Waals Surface) (Alpha=1.100).
 Cavity algorithm     : GePol (No added spheres)
                        Default sphere list used, NSphG=   29.
                        Lebedev-Laikov grids with approx.  5.0 points / Ang**2.
                        Smoothing algorithm: York/Karplus (Gamma=1.0000).
                        Polarization charges: spherical gaussians, with
                                              point-specific exponents (IZeta= 3).
                        Self-potential: point-specific (ISelfS= 7).
                        Self-field    : sphere-specific E.n sum rule (ISelfD= 2).
 Solvent              : TetraHydroFuran, Eps=   7.425700 Eps(inf)=   1.974025
 ------------------------------------------------------------------------------
 GePol: Number of generator spheres                  =      29
 GePol: Total number of spheres                      =      29
 GePol: Number of exposed spheres                    =      29 (100.00%)
 GePol: Number of points                             =    2094
 GePol: Average weight of points                     =       0.13
 GePol: Minimum weight of points                     =   0.11D-10
 GePol: Maximum weight of points                     =    0.20577
 GePol: Number of points with low weight             =     149
 GePol: Fraction of low-weight points (<1% of avg)   =       7.12%
 GePol: Cavity surface area                          =    268.725 Ang**2
 GePol: Cavity volume                                =    286.767 Ang**3
 Leave Link  301 at Fri Jan 23 22:54:42 2026, MaxMem=  2147483648 cpu:               0.6 elap:               0.0
 (Enter /data/home/wyx/g16/l302.exe)
 NPDir=0 NMtPBC=     1 NCelOv=     1 NCel=       1 NClECP=     1 NCelD=      1
         NCelK=      1 NCelE2=     1 NClLst=     1 CellRange=     0.0.
 One-electron integrals computed using PRISM.
 One-electron integral symmetry used in STVInt
 NBasis=   356 RedAO= T EigKep=  4.73D-05  NBF=   356
 NBsUse=   356 1.00D-06 EigRej= -1.00D+00 NBFU=   356
 Precomputing XC quadrature grid using
 IXCGrd= 4 IRadAn=           5 IRanWt=          -1 IRanGd=           0 AccXCQ= 0.00D+00.
 Generated NRdTot=       0 NPtTot=           0 NUsed=           0 NTot=          32
 NSgBfM=   366   366   366   366   366 MxSgAt=    29 MxSgA2=    29.
 Leave Link  302 at Fri Jan 23 22:54:43 2026, MaxMem=  2147483648 cpu:               3.1 elap:               0.2
 (Enter /data/home/wyx/g16/l303.exe)
 DipDrv:  MaxL=1.
 Leave Link  303 at Fri Jan 23 22:54:43 2026, MaxMem=  2147483648 cpu:               0.6 elap:               0.0
 (Enter /data/home/wyx/g16/l401.exe)
 Initial guess from the checkpoint file:  "DDL-S1-cLR-gs-15.chk"
 B after Tr=     0.000000    0.000000   -0.000000
         Rot=    1.000000   -0.000000    0.000000    0.000000 Ang=   0.00 deg.
 Guess basis will be translated and rotated to current coordinates.
 JPrj=2 DoOrth=T DoCkMO=T.
 Leave Link  401 at Fri Jan 23 22:54:43 2026, MaxMem=  2147483648 cpu:               2.2 elap:               0.2
 (Enter /data/home/wyx/g16/l502.exe)
 Integral symmetry usage will be decided dynamically.
 Closed shell SCF:
 Using DIIS extrapolation, IDIIS=  1040.
 NGot=  2147483648 LenX=  2147200095 LenY=  2147062754
 Requested convergence on RMS density matrix=1.00D-08 within 128 cycles.
 Requested convergence on MAX density matrix=1.00D-06.
 Requested convergence on             energy=1.00D-06.
 No special actions if energy rises.
 Fock matrices will be formed incrementally for  20 cycles.

 Cycle   1  Pass 1  IDiag  1:
 FoFJK:  IHMeth= 1 ICntrl=       0 DoSepK=T KAlg= 0 I1Cent=           0 FoldK=F
 IRaf=         1 NMat=       1 IRICut=       1 DoRegI=T DoRafI=F ISym2E= 0 IDoP0=0 IntGTp=1.
 FoFCou: FMM=F IPFlag=           0 FMFlag=      100000 FMFlg1=           0
         NFxFlg=           0 DoJE=T BraDBF=F KetDBF=F FulRan=T
         wScrn=  0.000000 ICntrl=       500 IOpCl=  0 I1Cent=           0 NGrid=           0
         NMat0=    1 NMatS0=      1 NMatT0=    0 NMatD0=    1 NMtDS0=    0 NMtDT0=    0
 Symmetry not used in FoFCou.
 Inv3:  Mode=1 IEnd=    13154508.
 Iteration    1 A*A^-1 deviation from unit magnitude is 2.66D-15 for    369.
 Iteration    1 A*A^-1 deviation from orthogonality  is 2.64D-15 for    576    404.
 Iteration    1 A^-1*A deviation from unit magnitude is 2.78D-15 for   1442.
 Iteration    1 A^-1*A deviation from orthogonality  is 2.08D-15 for   1499   1262.
 NEqPCM:  Using non-equilibrium solvation (IEInf=1, Eps=   7.4257, EpsInf=   1.9740)
 Inv3:  Mode=1 IEnd=    13154508.
 Iteration    1 A*A^-1 deviation from unit magnitude is 3.11D-15 for    126.
 Iteration    1 A*A^-1 deviation from orthogonality  is 1.63D-15 for   1351     16.
 Iteration    1 A^-1*A deviation from unit magnitude is 3.11D-15 for   1660.
 Iteration    1 A^-1*A deviation from orthogonality  is 2.22D-15 for   1805    612.
 E= -633.328490036837    
 DIIS: error= 2.48D-04 at cycle   1 NSaved=   1.
 NSaved= 1 IEnMin= 1 EnMin= -633.328490036837     IErMin= 1 ErrMin= 2.48D-04
 ErrMax= 2.48D-04  0.00D+00 EMaxC= 1.00D-01 BMatC= 1.25D-05 BMatP= 1.25D-05
 IDIUse=3 WtCom= 9.98D-01 WtEn= 2.48D-03
 Coeff-Com:  0.100D+01
 Coeff-En:   0.100D+01
 Coeff:      0.100D+01
 Gap=     0.238 Goal=   None    Shift=    0.000
 RMSDP=1.48D-04 MaxDP=7.64D-03              OVMax= 3.53D-03

 Cycle   2  Pass 1  IDiag  1:
 RMSU=  1.47D-04    CP:  9.99D-01
 E= -633.328511918785     Delta-E=       -0.000021881948 Rises=F Damp=F
 DIIS: error= 1.40D-04 at cycle   2 NSaved=   2.
 NSaved= 2 IEnMin= 2 EnMin= -633.328511918785     IErMin= 2 ErrMin= 1.40D-04
 ErrMax= 1.40D-04  0.00D+00 EMaxC= 1.00D-01 BMatC= 9.19D-06 BMatP= 1.25D-05
 IDIUse=3 WtCom= 9.99D-01 WtEn= 1.40D-03
 Coeff-Com:  0.447D+00 0.553D+00
 Coeff-En:   0.000D+00 0.100D+01
 Coeff:      0.446D+00 0.554D+00
 Gap=     0.239 Goal=   None    Shift=    0.000
 RMSDP=2.91D-05 MaxDP=1.85D-03 DE=-2.19D-05 OVMax= 1.08D-03

 Cycle   3  Pass 1  IDiag  1:
 RMSU=  2.41D-05    CP:  1.00D+00  9.15D-01
 E= -633.328519810233     Delta-E=       -0.000007891448 Rises=F Damp=F
 DIIS: error= 8.46D-05 at cycle   3 NSaved=   3.
 NSaved= 3 IEnMin= 3 EnMin= -633.328519810233     IErMin= 3 ErrMin= 8.46D-05
 ErrMax= 8.46D-05  0.00D+00 EMaxC= 1.00D-01 BMatC= 1.55D-06 BMatP= 9.19D-06
 IDIUse=1 WtCom= 1.00D+00 WtEn= 0.00D+00
 Coeff-Com:  0.770D-01 0.274D+00 0.649D+00
 Coeff:      0.770D-01 0.274D+00 0.649D+00
 Gap=     0.239 Goal=   None    Shift=    0.000
 RMSDP=9.49D-06 MaxDP=3.80D-04 DE=-7.89D-06 OVMax= 5.36D-04

 Cycle   4  Pass 1  IDiag  1:
 RMSU=  9.01D-06    CP:  9.99D-01  9.13D-01  9.16D-01
 E= -633.328521077474     Delta-E=       -0.000001267241 Rises=F Damp=F
 DIIS: error= 1.73D-05 at cycle   4 NSaved=   4.
 NSaved= 4 IEnMin= 4 EnMin= -633.328521077474     IErMin= 4 ErrMin= 1.73D-05
 ErrMax= 1.73D-05  0.00D+00 EMaxC= 1.00D-01 BMatC= 1.41D-07 BMatP= 1.55D-06
 IDIUse=1 WtCom= 1.00D+00 WtEn= 0.00D+00
 Coeff-Com: -0.904D-02 0.454D-01 0.250D+00 0.713D+00
 Coeff:     -0.904D-02 0.454D-01 0.250D+00 0.713D+00
 Gap=     0.239 Goal=   None    Shift=    0.000
 RMSDP=5.16D-06 MaxDP=3.47D-04 DE=-1.27D-06 OVMax= 1.62D-04

 Cycle   5  Pass 1  IDiag  1:
 RMSU=  3.02D-06    CP:  1.00D+00  9.20D-01  1.06D+00  1.17D+00
 E= -633.328521199387     Delta-E=       -0.000000121913 Rises=F Damp=F
 DIIS: error= 6.75D-06 at cycle   5 NSaved=   5.
 NSaved= 5 IEnMin= 5 EnMin= -633.328521199387     IErMin= 5 ErrMin= 6.75D-06
 ErrMax= 6.75D-06  0.00D+00 EMaxC= 1.00D-01 BMatC= 2.61D-08 BMatP= 1.41D-07
 IDIUse=1 WtCom= 1.00D+00 WtEn= 0.00D+00
 Coeff-Com: -0.122D-01-0.186D-01 0.265D-01 0.327D+00 0.678D+00
 Coeff:     -0.122D-01-0.186D-01 0.265D-01 0.327D+00 0.678D+00
 Gap=     0.239 Goal=   None    Shift=    0.000
 RMSDP=1.42D-06 MaxDP=7.75D-05 DE=-1.22D-07 OVMax= 7.25D-05

 Cycle   6  Pass 1  IDiag  1:
 RMSU=  9.11D-07    CP:  1.00D+00  9.19D-01  1.08D+00  1.27D+00  1.05D+00
 E= -633.328521227495     Delta-E=       -0.000000028108 Rises=F Damp=F
 DIIS: error= 3.21D-06 at cycle   6 NSaved=   6.
 NSaved= 6 IEnMin= 6 EnMin= -633.328521227495     IErMin= 6 ErrMin= 3.21D-06
 ErrMax= 3.21D-06  0.00D+00 EMaxC= 1.00D-01 BMatC= 2.82D-09 BMatP= 2.61D-08
 IDIUse=1 WtCom= 1.00D+00 WtEn= 0.00D+00
 Coeff-Com: -0.287D-02-0.126D-01-0.116D-01 0.324D-01 0.249D+00 0.746D+00
 Coeff:     -0.287D-02-0.126D-01-0.116D-01 0.324D-01 0.249D+00 0.746D+00
 Gap=     0.239 Goal=   None    Shift=    0.000
 RMSDP=8.82D-07 MaxDP=6.19D-05 DE=-2.81D-08 OVMax= 4.55D-05

 Cycle   7  Pass 1  IDiag  1:
 RMSU=  3.57D-07    CP:  1.00D+00  9.18D-01  1.10D+00  1.32D+00  1.20D+00
                    CP:  1.16D+00
 E= -633.328521231088     Delta-E=       -0.000000003594 Rises=F Damp=F
 DIIS: error= 1.26D-06 at cycle   7 NSaved=   7.
 NSaved= 7 IEnMin= 7 EnMin= -633.328521231088     IErMin= 7 ErrMin= 1.26D-06
 ErrMax= 1.26D-06  0.00D+00 EMaxC= 1.00D-01 BMatC= 8.69D-10 BMatP= 2.82D-09
 IDIUse=1 WtCom= 1.00D+00 WtEn= 0.00D+00
 Coeff-Com:  0.774D-03-0.407D-02-0.748D-02-0.440D-01-0.134D-02 0.388D+00
 Coeff-Com:  0.669D+00
 Coeff:      0.774D-03-0.407D-02-0.748D-02-0.440D-01-0.134D-02 0.388D+00
 Coeff:      0.669D+00
 Gap=     0.239 Goal=   None    Shift=    0.000
 RMSDP=3.13D-07 MaxDP=2.02D-05 DE=-3.59D-09 OVMax= 2.11D-05

 Cycle   8  Pass 1  IDiag  1:
 RMSU=  1.40D-07    CP:  1.00D+00  9.17D-01  1.10D+00  1.34D+00  1.24D+00
                    CP:  1.30D+00  1.01D+00
 E= -633.328521232235     Delta-E=       -0.000000001146 Rises=F Damp=F
 DIIS: error= 4.16D-07 at cycle   8 NSaved=   8.
 NSaved= 8 IEnMin= 8 EnMin= -633.328521232235     IErMin= 8 ErrMin= 4.16D-07
 ErrMax= 4.16D-07  0.00D+00 EMaxC= 1.00D-01 BMatC= 6.55D-11 BMatP= 8.69D-10
 IDIUse=1 WtCom= 1.00D+00 WtEn= 0.00D+00
 Coeff-Com:  0.649D-03-0.171D-03 0.886D-03-0.169D-01-0.389D-01-0.320D-02
 Coeff-Com:  0.168D+00 0.890D+00
 Coeff:      0.649D-03-0.171D-03 0.886D-03-0.169D-01-0.389D-01-0.320D-02
 Coeff:      0.168D+00 0.890D+00
 Gap=     0.239 Goal=   None    Shift=    0.000
 RMSDP=1.53D-07 MaxDP=9.86D-06 DE=-1.15D-09 OVMax= 1.04D-05

 Cycle   9  Pass 1  IDiag  1:
 RMSU=  5.94D-08    CP:  1.00D+00  9.17D-01  1.11D+00  1.34D+00  1.27D+00
                    CP:  1.38D+00  1.16D+00  1.09D+00
 E= -633.328521232375     Delta-E=       -0.000000000140 Rises=F Damp=F
 DIIS: error= 1.73D-07 at cycle   9 NSaved=   9.
 NSaved= 9 IEnMin= 9 EnMin= -633.328521232375     IErMin= 9 ErrMin= 1.73D-07
 ErrMax= 1.73D-07  0.00D+00 EMaxC= 1.00D-01 BMatC= 6.99D-12 BMatP= 6.55D-11
 IDIUse=1 WtCom= 1.00D+00 WtEn= 0.00D+00
 Coeff-Com:  0.108D-03 0.248D-03 0.134D-02 0.782D-03-0.117D-01-0.517D-01
 Coeff-Com: -0.353D-01 0.265D+00 0.831D+00
 Coeff:      0.108D-03 0.248D-03 0.134D-02 0.782D-03-0.117D-01-0.517D-01
 Coeff:     -0.353D-01 0.265D+00 0.831D+00
 Gap=     0.239 Goal=   None    Shift=    0.000
 RMSDP=4.10D-08 MaxDP=1.45D-06 DE=-1.40D-10 OVMax= 3.81D-06

 Cycle  10  Pass 1  IDiag  1:
 RMSU=  1.81D-08    CP:  1.00D+00  9.17D-01  1.11D+00  1.34D+00  1.27D+00
                    CP:  1.40D+00  1.22D+00  1.19D+00  1.20D+00
 E= -633.328521232394     Delta-E=       -0.000000000019 Rises=F Damp=F
 DIIS: error= 6.69D-08 at cycle  10 NSaved=  10.
 NSaved=10 IEnMin=10 EnMin= -633.328521232394     IErMin=10 ErrMin= 6.69D-08
 ErrMax= 6.69D-08  0.00D+00 EMaxC= 1.00D-01 BMatC= 1.08D-12 BMatP= 6.99D-12
 IDIUse=1 WtCom= 1.00D+00 WtEn= 0.00D+00
 Coeff-Com: -0.286D-04 0.124D-03 0.348D-03 0.233D-02 0.286D-04-0.193D-01
 Coeff-Com: -0.311D-01-0.630D-03 0.296D+00 0.752D+00
 Coeff:     -0.286D-04 0.124D-03 0.348D-03 0.233D-02 0.286D-04-0.193D-01
 Coeff:     -0.311D-01-0.630D-03 0.296D+00 0.752D+00
 Gap=     0.239 Goal=   None    Shift=    0.000
 RMSDP=1.66D-08 MaxDP=8.27D-07 DE=-1.88D-11 OVMax= 1.35D-06

 Cycle  11  Pass 1  IDiag  1:
 RMSU=  8.44D-09    CP:  1.00D+00  9.17D-01  1.11D+00  1.34D+00  1.27D+00
                    CP:  1.40D+00  1.24D+00  1.22D+00  1.34D+00  1.27D+00
 E= -633.328521232396     Delta-E=       -0.000000000002 Rises=F Damp=F
 DIIS: error= 3.38D-08 at cycle  11 NSaved=  11.
 NSaved=11 IEnMin=11 EnMin= -633.328521232396     IErMin=11 ErrMin= 3.38D-08
 ErrMax= 3.38D-08  0.00D+00 EMaxC= 1.00D-01 BMatC= 3.87D-13 BMatP= 1.08D-12
 IDIUse=1 WtCom= 1.00D+00 WtEn= 0.00D+00
 Coeff-Com: -0.340D-04 0.323D-04-0.123D-03 0.104D-02 0.243D-02 0.113D-02
 Coeff-Com: -0.761D-02-0.532D-01-0.230D-01 0.395D+00 0.684D+00
 Coeff:     -0.340D-04 0.323D-04-0.123D-03 0.104D-02 0.243D-02 0.113D-02
 Coeff:     -0.761D-02-0.532D-01-0.230D-01 0.395D+00 0.684D+00
 Gap=     0.239 Goal=   None    Shift=    0.000
 RMSDP=7.59D-09 MaxDP=3.71D-07 DE=-1.82D-12 OVMax= 6.41D-07

 Error on total polarization charges =  0.00926
 SCF Done:  E(RCAM-B3LYP) =  -633.328521232     A.U. after   11 cycles
            NFock= 11  Conv=0.76D-08     -V/T= 2.0041
 KE= 6.307150833555D+02 PE=-3.277563282608D+03 EE= 1.112759915275D+03
 Leave Link  502 at Fri Jan 23 22:55:27 2026, MaxMem=  2147483648 cpu:             692.4 elap:              43.9
 (Enter /data/home/wyx/g16/l601.exe)
 Copying SCF densities to generalized density rwf, IOpCl= 0 IROHF=0.

 **********************************************************************

            Population analysis using the SCF density.

 **********************************************************************

 Orbital symmetries:
       Occupied  (A) (A) (A) (A) (A) (A) (A) (A) (A) (A) (A) (A)
                 (A) (A) (A) (A) (A) (A) (A) (A) (A) (A) (A) (A)
                 (A) (A) (A) (A) (A) (A) (A) (A) (A) (A) (A) (A)
                 (A) (A) (A) (A) (A) (A) (A) (A) (A) (A) (A) (A)
                 (A) (A) (A) (A)
       Virtual   (A) (A) (A) (A) (A) (A) (A) (A) (A) (A) (A) (A)
                 (A) (A) (A) (A) (A) (A) (A) (A) (A) (A) (A) (A)
                 (A) (A) (A) (A) (A) (A) (A) (A) (A) (A) (A) (A)
                 (A) (A) (A) (A) (A) (A) (A) (A) (A) (A) (A) (A)
                 (A) (A) (A) (A) (A) (A) (A) (A) (A) (A) (A) (A)
                 (A) (A) (A) (A) (A) (A) (A) (A) (A) (A) (A) (A)
                 (A) (A) (A) (A) (A) (A) (A) (A) (A) (A) (A) (A)
                 (A) (A) (A) (A) (A) (A) (A) (A) (A) (A) (A) (A)
                 (A) (A) (A) (A) (A) (A) (A) (A) (A) (A) (A) (A)
                 (A) (A) (A) (A) (A) (A) (A) (A) (A) (A) (A) (A)
                 (A) (A) (A) (A) (A) (A) (A) (A) (A) (A) (A) (A)
                 (A) (A) (A) (A) (A) (A) (A) (A) (A) (A) (A) (A)
                 (A) (A) (A) (A) (A) (A) (A) (A) (A) (A) (A) (A)
                 (A) (A) (A) (A) (A) (A) (A) (A) (A) (A) (A) (A)
                 (A) (A) (A) (A) (A) (A) (A) (A) (A) (A) (A) (A)
                 (A) (A) (A) (A) (A) (A) (A) (A) (A) (A) (A) (A)
                 (A) (A) (A) (A) (A) (A) (A) (A) (A) (A) (A) (A)
                 (A) (A) (A) (A) (A) (A) (A) (A) (A) (A) (A) (A)
                 (A) (A) (A) (A) (A) (A) (A) (A) (A) (A) (A) (A)
                 (A) (A) (A) (A) (A) (A) (A) (A) (A) (A) (A) (A)
                 (A) (A) (A) (A) (A) (A) (A) (A) (A) (A) (A) (A)
                 (A) (A) (A) (A) (A) (A) (A) (A) (A) (A) (A) (A)
                 (A) (A) (A) (A) (A) (A) (A) (A) (A) (A) (A) (A)
                 (A) (A) (A) (A) (A) (A) (A) (A) (A) (A) (A) (A)
                 (A) (A) (A) (A) (A) (A) (A) (A) (A) (A) (A) (A)
                 (A) (A) (A) (A)
 The electronic state is 1-A.
 Alpha  occ. eigenvalues --  -19.17883 -19.17289 -14.43936 -10.33457 -10.32957
 Alpha  occ. eigenvalues --  -10.31917 -10.31296 -10.25908 -10.24968 -10.24708
 Alpha  occ. eigenvalues --  -10.24607 -10.24380 -10.24352 -10.23668  -1.12067
 Alpha  occ. eigenvalues --   -1.11505  -1.07311  -0.91122  -0.90081  -0.83781
 Alpha  occ. eigenvalues --   -0.82465  -0.81585  -0.78409  -0.73849  -0.71026
 Alpha  occ. eigenvalues --   -0.68473  -0.61458  -0.58110  -0.56727  -0.55061
 Alpha  occ. eigenvalues --   -0.54399  -0.53932  -0.52531  -0.51890  -0.50722
 Alpha  occ. eigenvalues --   -0.49998  -0.49458  -0.49084  -0.48568  -0.48036
 Alpha  occ. eigenvalues --   -0.46829  -0.45283  -0.45074  -0.43280  -0.42974
 Alpha  occ. eigenvalues --   -0.42384  -0.42006  -0.41930  -0.32718  -0.32202
 Alpha  occ. eigenvalues --   -0.31158  -0.26009
 Alpha virt. eigenvalues --   -0.02151   0.02565   0.06400   0.08239   0.08573
 Alpha virt. eigenvalues --    0.10068   0.10816   0.12005   0.12691   0.13526
 Alpha virt. eigenvalues --    0.14333   0.14887   0.15692   0.16104   0.16941
 Alpha virt. eigenvalues --    0.17512   0.17848   0.17954   0.18149   0.19219
 Alpha virt. eigenvalues --    0.19962   0.22104   0.22772   0.23518   0.23663
 Alpha virt. eigenvalues --    0.23890   0.24862   0.25609   0.25980   0.26529
 Alpha virt. eigenvalues --    0.26890   0.27353   0.28855   0.29081   0.30207
 Alpha virt. eigenvalues --    0.31640   0.32052   0.32795   0.33659   0.34399
 Alpha virt. eigenvalues --    0.35484   0.35956   0.36856   0.38099   0.39016
 Alpha virt. eigenvalues --    0.40212   0.41047   0.41818   0.42371   0.42786
 Alpha virt. eigenvalues --    0.44043   0.44251   0.45457   0.45956   0.46246
 Alpha virt. eigenvalues --    0.47225   0.47732   0.48008   0.48398   0.48987
 Alpha virt. eigenvalues --    0.49496   0.50377   0.50719   0.51373   0.51711
 Alpha virt. eigenvalues --    0.52940   0.53169   0.53385   0.54246   0.54459
 Alpha virt. eigenvalues --    0.54580   0.55928   0.56255   0.56679   0.58181
 Alpha virt. eigenvalues --    0.58641   0.59072   0.60653   0.61203   0.62511
 Alpha virt. eigenvalues --    0.63314   0.65645   0.66032   0.66590   0.67990
 Alpha virt. eigenvalues --    0.68675   0.70122   0.71319   0.72423   0.73142
 Alpha virt. eigenvalues --    0.73570   0.73828   0.75008   0.76252   0.77700
 Alpha virt. eigenvalues --    0.78293   0.79884   0.81945   0.84066   0.84544
 Alpha virt. eigenvalues --    0.89352   0.93201   0.99110   1.00352   1.24830
 Alpha virt. eigenvalues --    1.25820   1.27210   1.27611   1.29388   1.31606
 Alpha virt. eigenvalues --    1.32442   1.33084   1.34129   1.35278   1.35957
 Alpha virt. eigenvalues --    1.36592   1.37159   1.38104   1.39300   1.39949
 Alpha virt. eigenvalues --    1.40041   1.40257   1.41191   1.41685   1.41832
 Alpha virt. eigenvalues --    1.43269   1.44174   1.44837   1.45292   1.46985
 Alpha virt. eigenvalues --    1.48248   1.49020   1.49717   1.50641   1.51107
 Alpha virt. eigenvalues --    1.52407   1.52473   1.54175   1.54527   1.57713
 Alpha virt. eigenvalues --    1.58347   1.60560   1.60760   1.61265   1.62269
 Alpha virt. eigenvalues --    1.62587   1.63392   1.64277   1.65329   1.65678
 Alpha virt. eigenvalues --    1.67064   1.67477   1.67717   1.68194   1.68666
 Alpha virt. eigenvalues --    1.68833   1.69950   1.70637   1.72254   1.72360
 Alpha virt. eigenvalues --    1.73309   1.75261   1.76122   1.76846   1.78941
 Alpha virt. eigenvalues --    1.79942   1.83308   1.84410   1.86008   1.86587
 Alpha virt. eigenvalues --    1.87011   1.87327   1.88598   1.88990   1.90740
 Alpha virt. eigenvalues --    1.91600   1.94505   1.95328   1.98143   1.99654
 Alpha virt. eigenvalues --    2.00883   2.03771   2.04464   2.06350   2.09506
 Alpha virt. eigenvalues --    2.11378   2.13005   2.14428   2.16594   2.19490
 Alpha virt. eigenvalues --    2.20462   2.21177   2.21883   2.22628   2.25999
 Alpha virt. eigenvalues --    2.26938   2.27281   2.28899   2.30505   2.31243
 Alpha virt. eigenvalues --    2.32949   2.34774   2.36217   2.36445   2.37940
 Alpha virt. eigenvalues --    2.39545   2.40208   2.41630   2.43922   2.44827
 Alpha virt. eigenvalues --    2.45945   2.47682   2.50190   2.50494   2.51682
 Alpha virt. eigenvalues --    2.52972   2.53568   2.54998   2.56771   2.58726
 Alpha virt. eigenvalues --    2.59048   2.60001   2.60861   2.61544   2.62650
 Alpha virt. eigenvalues --    2.64468   2.65618   2.66967   2.67677   2.69164
 Alpha virt. eigenvalues --    2.70644   2.72068   2.72779   2.73598   2.74809
 Alpha virt. eigenvalues --    2.76082   2.76596   2.77395   2.78083   2.79459
 Alpha virt. eigenvalues --    2.80724   2.81381   2.82992   2.83568   2.84579
 Alpha virt. eigenvalues --    2.85613   2.86006   2.87719   2.90442   2.91721
 Alpha virt. eigenvalues --    2.97809   3.00166   3.01225   3.03710   3.10267
 Alpha virt. eigenvalues --    3.12091   3.15497   3.16410   3.16889   3.20257
 Alpha virt. eigenvalues --    3.20869   3.22201   3.25162   3.26553   3.27084
 Alpha virt. eigenvalues --    3.27723   3.29535   3.33439   3.34886   3.36555
 Alpha virt. eigenvalues --    3.36962   3.38679   3.39816   3.40265   3.41546
 Alpha virt. eigenvalues --    3.42610   3.44737   3.45438   3.46577   3.48027
 Alpha virt. eigenvalues --    3.48468   3.49252   3.55251   3.58255   3.59648
 Alpha virt. eigenvalues --    3.60472   3.89898   3.99453   4.34486   4.36228
 Alpha virt. eigenvalues --   21.63332  21.79270  22.08340  22.10998  22.11686
 Alpha virt. eigenvalues --   22.14443  22.15190  22.18056  22.21183  22.25059
 Alpha virt. eigenvalues --   22.30712  31.93383  43.62903  43.65353
          Condensed to atoms (all electrons):
               1          2          3          4          5          6
     1  O    7.938074   0.000000  -0.000243   0.000018   0.015474   0.017707
     2  O    0.000000   7.969504   0.000443   0.000034  -0.199149   0.000871
     3  N   -0.000243   0.000443   6.397751   0.374733  -0.111403   0.327507
     4  H    0.000018   0.000034   0.374733   0.410903   0.017198  -0.047660
     5  C    0.015474  -0.199149  -0.111403   0.017198   6.915121  -0.057686
     6  C    0.017707   0.000871   0.327507  -0.047660  -0.057686   5.634119
     7  C   -0.000458  -0.031349   0.373305  -0.040370   0.362919  -0.084149
     8  C   -0.000137   0.711887   0.004934  -0.000635  -0.213093   0.024947
     9  C   -0.030782   0.017599   0.015020  -0.000150  -0.434344  -0.138863
    10  H    0.016997  -0.000021  -0.001339   0.000018  -0.106503   0.025372
    11  H    0.003320   0.000082   0.003819   0.000006  -0.030023  -0.014830
    12  C   -0.216841  -0.002162  -0.090074   0.014895   0.134784  -0.180459
    13  C    0.712040  -0.000028   0.000168   0.000363   0.073104   0.188027
    14  C   -0.000004  -0.011257  -0.035993  -0.008831  -0.071373   0.009393
    15  H   -0.000000   0.004312   0.002859   0.001339   0.017630   0.006493
    16  H   -0.000000   0.001621   0.001591   0.000756  -0.009900  -0.000796
    17  H   -0.000000   0.001484  -0.002913   0.000912  -0.003449  -0.002020
    18  C   -0.000116  -0.105900  -0.000613   0.000019  -0.275549   0.000682
    19  H   -0.000004   0.009380   0.000002  -0.000001   0.024561   0.000029
    20  H    0.000074   0.003354   0.000119   0.000000   0.040315  -0.001044
    21  H    0.000024   0.001188   0.000012  -0.000000   0.005295   0.000244
    22  C   -0.107202   0.000000  -0.000071   0.000118   0.004035  -0.004732
    23  H    0.001181  -0.000000  -0.000041  -0.000017  -0.000089   0.011088
    24  H    0.004679  -0.000000  -0.000088  -0.000051  -0.000544  -0.034600
    25  H    0.007963   0.000000   0.000033  -0.000002  -0.000139  -0.001490
    26  C    0.000879   0.000003  -0.031282  -0.005606   0.000014   0.172258
    27  H   -0.000044  -0.000000  -0.002298   0.000413   0.000408  -0.036472
    28  H   -0.000241   0.000000   0.003296   0.000906   0.000022  -0.045886
    29  H    0.000026  -0.000000   0.000025   0.000812  -0.000556  -0.049250
               7          8          9         10         11         12
     1  O   -0.000458  -0.000137  -0.030782   0.016997   0.003320  -0.216841
     2  O   -0.031349   0.711887   0.017599  -0.000021   0.000082  -0.002162
     3  N    0.373305   0.004934   0.015020  -0.001339   0.003819  -0.090074
     4  H   -0.040370  -0.000635  -0.000150   0.000018   0.000006   0.014895
     5  C    0.362919  -0.213093  -0.434344  -0.106503  -0.030023   0.134784
     6  C   -0.084149   0.024947  -0.138863   0.025372  -0.014830  -0.180459
     7  C    5.425888  -0.171928  -0.163991   0.018767  -0.004308  -0.008427
     8  C   -0.171928   5.321124   0.074257  -0.009403  -0.004541  -0.028313
     9  C   -0.163991   0.074257   6.200177   0.521821   0.394773   0.059359
    10  H    0.018767  -0.009403   0.521821   0.503000  -0.032927  -0.104592
    11  H   -0.004308  -0.004541   0.394773  -0.032927   0.543256  -0.020299
    12  C   -0.008427  -0.028313   0.059359  -0.104592  -0.020299   7.238116
    13  C    0.010737  -0.005211  -0.261696  -0.001749   0.001215  -0.386676
    14  C    0.256922  -0.039546   0.010524   0.000503  -0.001296  -0.004797
    15  H   -0.072506   0.005587  -0.000104  -0.000002   0.000068  -0.001193
    16  H   -0.030019  -0.007488  -0.000584  -0.000053   0.000189  -0.000075
    17  H   -0.025783  -0.002346   0.000643   0.000052  -0.000068   0.000952
    18  C    0.002528   0.310757   0.003663   0.008881  -0.008571  -0.004639
    19  H    0.000241  -0.052915   0.000160   0.000529  -0.000059  -0.000188
    20  H    0.000297  -0.060508  -0.009798  -0.004794   0.002104   0.006399
    21  H    0.001367  -0.026392  -0.009399  -0.002811   0.001019  -0.003650
    22  C   -0.000124  -0.000046   0.001844   0.001379   0.001430  -0.260611
    23  H    0.000036   0.000003  -0.001901  -0.000118   0.000136  -0.011041
    24  H    0.000013  -0.000010   0.003356  -0.000084  -0.000114   0.066978
    25  H    0.000007   0.000003   0.000314  -0.000151  -0.000032   0.023065
    26  C    0.002312   0.000404   0.018803   0.000013  -0.000741  -0.073784
    27  H   -0.000733  -0.000007  -0.000141   0.000042  -0.000024  -0.019725
    28  H   -0.000796   0.000002  -0.000821   0.000002  -0.000094  -0.007339
    29  H    0.003717  -0.000006  -0.000514  -0.000009   0.000106   0.023299
              13         14         15         16         17         18
     1  O    0.712040  -0.000004  -0.000000  -0.000000  -0.000000  -0.000116
     2  O   -0.000028  -0.011257   0.004312   0.001621   0.001484  -0.105900
     3  N    0.000168  -0.035993   0.002859   0.001591  -0.002913  -0.000613
     4  H    0.000363  -0.008831   0.001339   0.000756   0.000912   0.000019
     5  C    0.073104  -0.071373   0.017630  -0.009900  -0.003449  -0.275549
     6  C    0.188027   0.009393   0.006493  -0.000796  -0.002020   0.000682
     7  C    0.010737   0.256922  -0.072506  -0.030019  -0.025783   0.002528
     8  C   -0.005211  -0.039546   0.005587  -0.007488  -0.002346   0.310757
     9  C   -0.261696   0.010524  -0.000104  -0.000584   0.000643   0.003663
    10  H   -0.001749   0.000503  -0.000002  -0.000053   0.000052   0.008881
    11  H    0.001215  -0.001296   0.000068   0.000189  -0.000068  -0.008571
    12  C   -0.386676  -0.004797  -0.001193  -0.000075   0.000952  -0.004639
    13  C    5.434208  -0.000062  -0.000016  -0.000001  -0.000022   0.000400
    14  C   -0.000062   5.068160   0.383809   0.426576   0.409708   0.001541
    15  H   -0.000016   0.383809   0.581029  -0.027872  -0.026450   0.000301
    16  H   -0.000001   0.426576  -0.027872   0.508662  -0.026614  -0.000242
    17  H   -0.000022   0.409708  -0.026450  -0.026614   0.512292  -0.000099
    18  C    0.000400   0.001541   0.000301  -0.000242  -0.000099   5.361307
    19  H   -0.000014   0.000073  -0.000006   0.000026  -0.000019   0.390441
    20  H    0.000442   0.000048  -0.000017  -0.000040   0.000006   0.381509
    21  H   -0.000025  -0.000280  -0.000007   0.000028  -0.000007   0.395743
    22  C    0.281326  -0.000026   0.000002  -0.000000   0.000000   0.000021
    23  H   -0.022226  -0.000000   0.000000  -0.000000   0.000000  -0.000002
    24  H   -0.090940  -0.000002   0.000000   0.000000   0.000000   0.000003
    25  H   -0.041110   0.000000   0.000000   0.000000  -0.000000  -0.000001
    26  C   -0.053776   0.001429   0.000053   0.000060  -0.000186   0.000026
    27  H    0.006151  -0.000098   0.000001   0.000004  -0.000014  -0.000001
    28  H   -0.005396   0.000098  -0.000012  -0.000001   0.000001  -0.000000
    29  H   -0.000509  -0.000290   0.000132  -0.000005   0.000003   0.000000
              19         20         21         22         23         24
     1  O   -0.000004   0.000074   0.000024  -0.107202   0.001181   0.004679
     2  O    0.009380   0.003354   0.001188   0.000000  -0.000000  -0.000000
     3  N    0.000002   0.000119   0.000012  -0.000071  -0.000041  -0.000088
     4  H   -0.000001   0.000000  -0.000000   0.000118  -0.000017  -0.000051
     5  C    0.024561   0.040315   0.005295   0.004035  -0.000089  -0.000544
     6  C    0.000029  -0.001044   0.000244  -0.004732   0.011088  -0.034600
     7  C    0.000241   0.000297   0.001367  -0.000124   0.000036   0.000013
     8  C   -0.052915  -0.060508  -0.026392  -0.000046   0.000003  -0.000010
     9  C    0.000160  -0.009798  -0.009399   0.001844  -0.001901   0.003356
    10  H    0.000529  -0.004794  -0.002811   0.001379  -0.000118  -0.000084
    11  H   -0.000059   0.002104   0.001019   0.001430   0.000136  -0.000114
    12  C   -0.000188   0.006399  -0.003650  -0.260611  -0.011041   0.066978
    13  C   -0.000014   0.000442  -0.000025   0.281326  -0.022226  -0.090940
    14  C    0.000073   0.000048  -0.000280  -0.000026  -0.000000  -0.000002
    15  H   -0.000006  -0.000017  -0.000007   0.000002   0.000000   0.000000
    16  H    0.000026  -0.000040   0.000028  -0.000000  -0.000000   0.000000
    17  H   -0.000019   0.000006  -0.000007   0.000000   0.000000   0.000000
    18  C    0.390441   0.381509   0.395743   0.000021  -0.000002   0.000003
    19  H    0.506879  -0.021011  -0.010329  -0.000000   0.000000   0.000000
    20  H   -0.021011   0.534205  -0.026057   0.000014  -0.000000  -0.000000
    21  H   -0.010329  -0.026057   0.504758  -0.000013   0.000000  -0.000000
    22  C   -0.000000   0.000014  -0.000013   5.425798   0.400225   0.398733
    23  H    0.000000  -0.000000   0.000000   0.400225   0.496467  -0.027208
    24  H    0.000000  -0.000000  -0.000000   0.398733  -0.027208   0.539998
    25  H   -0.000000  -0.000000  -0.000000   0.384932  -0.007920  -0.021741
    26  C    0.000000  -0.000014   0.000006  -0.027303  -0.015480   0.015184
    27  H    0.000000  -0.000000   0.000000  -0.010688   0.001128  -0.001338
    28  H   -0.000000  -0.000000  -0.000000   0.008788  -0.000695  -0.010603
    29  H    0.000000   0.000000  -0.000000   0.001929   0.000233   0.000736
              25         26         27         28         29
     1  O    0.007963   0.000879  -0.000044  -0.000241   0.000026
     2  O    0.000000   0.000003  -0.000000   0.000000  -0.000000
     3  N    0.000033  -0.031282  -0.002298   0.003296   0.000025
     4  H   -0.000002  -0.005606   0.000413   0.000906   0.000812
     5  C   -0.000139   0.000014   0.000408   0.000022  -0.000556
     6  C   -0.001490   0.172258  -0.036472  -0.045886  -0.049250
     7  C    0.000007   0.002312  -0.000733  -0.000796   0.003717
     8  C    0.000003   0.000404  -0.000007   0.000002  -0.000006
     9  C    0.000314   0.018803  -0.000141  -0.000821  -0.000514
    10  H   -0.000151   0.000013   0.000042   0.000002  -0.000009
    11  H   -0.000032  -0.000741  -0.000024  -0.000094   0.000106
    12  C    0.023065  -0.073784  -0.019725  -0.007339   0.023299
    13  C   -0.041110  -0.053776   0.006151  -0.005396  -0.000509
    14  C    0.000000   0.001429  -0.000098   0.000098  -0.000290
    15  H    0.000000   0.000053   0.000001  -0.000012   0.000132
    16  H    0.000000   0.000060   0.000004  -0.000001  -0.000005
    17  H   -0.000000  -0.000186  -0.000014   0.000001   0.000003
    18  C   -0.000001   0.000026  -0.000001  -0.000000   0.000000
    19  H   -0.000000   0.000000   0.000000  -0.000000   0.000000
    20  H   -0.000000  -0.000014  -0.000000  -0.000000   0.000000
    21  H   -0.000000   0.000006   0.000000  -0.000000  -0.000000
    22  C    0.384932  -0.027303  -0.010688   0.008788   0.001929
    23  H   -0.007920  -0.015480   0.001128  -0.000695   0.000233
    24  H   -0.021741   0.015184  -0.001338  -0.010603   0.000736
    25  H    0.493558   0.001870   0.000100   0.000908  -0.000044
    26  C    0.001870   5.259965   0.429584   0.427127   0.390730
    27  H    0.000100   0.429584   0.483530  -0.025029  -0.019504
    28  H    0.000908   0.427127  -0.025029   0.512680  -0.026925
    29  H   -0.000044   0.390730  -0.019504  -0.026925   0.521295
 Mulliken charges:
               1
     1  O   -0.362386
     2  O   -0.371896
     3  N   -0.229259
     4  H    0.279882
     5  C   -0.097079
     6  C    0.281200
     7  C    0.175883
     8  C    0.168621
     9  C   -0.269225
    10  H    0.167179
    11  H    0.166404
    12  C   -0.142962
    13  C    0.161276
    14  C   -0.394927
    15  H    0.124570
    16  H    0.164177
    17  H    0.163936
    18  C   -0.462091
    19  H    0.152223
    20  H    0.154397
    21  H    0.169288
    22  C   -0.499761
    23  H    0.176243
    24  H    0.157644
    25  H    0.159876
    26  C   -0.512546
    27  H    0.194757
    28  H    0.170011
    29  H    0.154565
 Sum of Mulliken charges =  -0.00000
 Mulliken charges with hydrogens summed into heavy atoms:
               1
     1  O   -0.362386
     2  O   -0.371896
     3  N    0.050624
     5  C   -0.097079
     6  C    0.281200
     7  C    0.175883
     8  C    0.168621
     9  C    0.064357
    12  C   -0.142962
    13  C    0.161276
    14  C    0.057756
    18  C    0.013817
    22  C   -0.005998
    26  C    0.006787
 Electronic spatial extent (au):  <R**2>=           3183.4560
 Charge=             -0.0000 electrons
 Dipole moment (field-independent basis, Debye):
    X=              3.7794    Y=              7.0193    Z=             -0.3651  Tot=              7.9804
 Quadrupole moment (field-independent basis, Debye-Ang):
   XX=            -97.8175   YY=            -78.8919   ZZ=            -84.9626
   XY=             12.2239   XZ=              5.5431   YZ=             -1.4494
 Traceless Quadrupole moment (field-independent basis, Debye-Ang):
   XX=            -10.5935   YY=              8.3321   ZZ=              2.2614
   XY=             12.2239   XZ=              5.5431   YZ=             -1.4494
 Octapole moment (field-independent basis, Debye-Ang**2):
  XXX=            103.6704  YYY=             61.3677  ZZZ=              1.8646  XYY=            -33.5489
  XXY=             29.0442  XXZ=            -10.4661  XZZ=              2.3019  YZZ=             -1.5280
  YYZ=              2.9722  XYZ=             -5.1503
 Hexadecapole moment (field-independent basis, Debye-Ang**3):
 XXXX=          -3021.1231 YYYY=          -1277.1713 ZZZZ=           -159.5844 XXXY=             34.6725
 XXXZ=             63.6223 YYYX=             84.2104 YYYZ=            -21.5306 ZZZX=             -2.5592
 ZZZY=              6.0398 XXYY=           -692.4937 XXZZ=           -486.9986 YYZZ=           -242.9815
 XXYZ=             -6.6227 YYXZ=              6.4527 ZZXY=             -1.5477
 N-N= 9.007597627450D+02 E-N=-3.277563279770D+03  KE= 6.307150833555D+02
 No NMR shielding tensors so no spin-rotation constants.
 Leave Link  601 at Fri Jan 23 22:55:28 2026, MaxMem=  2147483648 cpu:               1.8 elap:               0.1
 (Enter /data/home/wyx/g16/l9999.exe)
 1\1\GINC-CN012\SP\RCAM-B3LYP\TZVP\C11H15N1O2\WYX\23-Jan-2026\0\\#p CAM
 -B3LYP TZVP em=gd3bj scrf=(Solvent=TetraHydroFuran,NonEquilibrium=Read
 ) Geom=Check Guess=Read\\Title Card Required\\0,1\O,0,2.834769,-1.5638
 86,0.161385\O,0,-3.418074,-1.618637,0.094504\N,0,-0.632321,1.509615,-0
 .381216\H,0,-0.940976,2.46667,-0.435865\C,0,-1.236512,-0.757182,-0.225
 422\C,0,0.703177,1.296323,-0.113137\C,0,-1.608964,0.543817,-0.297362\C
 ,0,-2.224821,-1.826886,-0.092604\C,0,0.222077,-1.114544,-0.368954\H,0,
 0.47334,-1.962353,0.265024\H,0,0.434632,-1.459386,-1.389975\C,0,1.1517
 79,0.022178,-0.018677\C,0,2.512064,-0.393041,0.330576\C,0,-3.000627,1.
 08645,-0.292964\H,0,-3.003224,2.136355,-0.584761\H,0,-3.643933,0.52571
 6,-0.963633\H,0,-3.44185,1.001786,0.699085\C,0,-1.731415,-3.248389,-0.
 190817\H,0,-2.583883,-3.918704,-0.249238\H,0,-1.087711,-3.394883,-1.05
 7463\H,0,-1.14225,-3.505898,0.690741\C,0,3.528726,0.544907,0.935674\H,
 0,4.044357,1.101933,0.151503\H,0,3.091794,1.258574,1.629308\H,0,4.2683
 39,-0.060731,1.453982\C,0,1.468319,2.575425,0.034916\H,0,1.502689,2.89
 2012,1.078205\H,0,2.483846,2.496586,-0.332097\H,0,0.976655,3.366175,-0
 .530715\\Version=ES64L-G16RevA.03\State=1-A\HF=-633.3285212\RMSD=7.594
 e-09\Dipole=0.4900586,3.0966879,-0.1684896\Quadrupole=-12.8156839,10.3
 801146,2.4355694,2.6210582,2.513811,0.4547673\PG=C01 [X(C11H15N1O2)]\\
 @



 IN THIS SHORT LIFE

 THAT ONLY LASTS AN HOUR

 HOW MUCH, HOW LITTLE, IS WITHIN OUR POWER....


 EMILY DICKINSON BOLTS OF MELODY NO. 521
 Job cpu time:       0 days  0 hours 11 minutes 42.7 seconds.
 Elapsed time:       0 days  0 hours  0 minutes 44.7 seconds.
 File lengths (MBytes):  RWF=    337 Int=      0 D2E=      0 Chk=     67 Scr=      1
 Normal termination of Gaussian 16 at Fri Jan 23 22:55:28 2026.
