 Entering Gaussian System, Link 0=g16
 Input=DDL-LR-Eq-15.gjf
 Output=DDL-LR-Eq-15.log
 Initial command:
 /data/home/wyx/g16/l1.exe "/scr/tmp/wyx/13106/Gau-1968805.inp" -scrdir="/scr/tmp/wyx/13106/"
 Entering Link 1 = /data/home/wyx/g16/l1.exe PID=   1968806.
  
 Copyright (c) 1988,1990,1992,1993,1995,1998,2003,2009,2016,
            Gaussian, Inc.  All Rights Reserved.
  
 This is part of the Gaussian(R) 16 program.  It is based on
 the Gaussian(R) 09 system (copyright 2009, Gaussian, Inc.),
 the Gaussian(R) 03 system (copyright 2003, Gaussian, Inc.),
 the Gaussian(R) 98 system (copyright 1998, Gaussian, Inc.),
 the Gaussian(R) 94 system (copyright 1995, Gaussian, Inc.),
 the Gaussian 92(TM) system (copyright 1992, Gaussian, Inc.),
 the Gaussian 90(TM) system (copyright 1990, Gaussian, Inc.),
 the Gaussian 88(TM) system (copyright 1988, Gaussian, Inc.),
 the Gaussian 86(TM) system (copyright 1986, Carnegie Mellon
 University), and the Gaussian 82(TM) system (copyright 1983,
 Carnegie Mellon University). Gaussian is a federally registered
 trademark of Gaussian, Inc.
  
 This software contains proprietary and confidential information,
 including trade secrets, belonging to Gaussian, Inc.
  
 This software is provided under written license and may be
 used, copied, transmitted, or stored only in accord with that
 written license.
  
 The following legend is applicable only to US Government
 contracts under FAR:
  
                    RESTRICTED RIGHTS LEGEND
  
 Use, reproduction and disclosure by the US Government is
 subject to restrictions as set forth in subparagraphs (a)
 and (c) of the Commercial Computer Software - Restricted
 Rights clause in FAR 52.227-19.
  
 Gaussian, Inc.
 340 Quinnipiac St., Bldg. 40, Wallingford CT 06492
  
  
 ---------------------------------------------------------------
 Warning -- This program may not be used in any manner that
 competes with the business of Gaussian, Inc. or will provide
 assistance to any competitor of Gaussian, Inc.  The licensee
 of this program is prohibited from giving any competitor of
 Gaussian, Inc. access to this program.  By using this program,
 the user acknowledges that Gaussian, Inc. is engaged in the
 business of creating and licensing software in the field of
 computational chemistry and represents and warrants to the
 licensee that it is not a competitor of Gaussian, Inc. and that
 it will not use this program in any manner prohibited above.
 ---------------------------------------------------------------
  

 Cite this work as:
 Gaussian 16, Revision A.03,
 M. J. Frisch, G. W. Trucks, H. B. Schlegel, G. E. Scuseria, 
 M. A. Robb, J. R. Cheeseman, G. Scalmani, V. Barone, 
 G. A. Petersson, H. Nakatsuji, X. Li, M. Caricato, A. V. Marenich, 
 J. Bloino, B. G. Janesko, R. Gomperts, B. Mennucci, H. P. Hratchian, 
 J. V. Ortiz, A. F. Izmaylov, J. L. Sonnenberg, D. Williams-Young, 
 F. Ding, F. Lipparini, F. Egidi, J. Goings, B. Peng, A. Petrone, 
 T. Henderson, D. Ranasinghe, V. G. Zakrzewski, J. Gao, N. Rega, 
 G. Zheng, W. Liang, M. Hada, M. Ehara, K. Toyota, R. Fukuda, 
 J. Hasegawa, M. Ishida, T. Nakajima, Y. Honda, O. Kitao, H. Nakai, 
 T. Vreven, K. Throssell, J. A. Montgomery, Jr., J. E. Peralta, 
 F. Ogliaro, M. J. Bearpark, J. J. Heyd, E. N. Brothers, K. N. Kudin, 
 V. N. Staroverov, T. A. Keith, R. Kobayashi, J. Normand, 
 K. Raghavachari, A. P. Rendell, J. C. Burant, S. S. Iyengar, 
 J. Tomasi, M. Cossi, J. M. Millam, M. Klene, C. Adamo, R. Cammi, 
 J. W. Ochterski, R. L. Martin, K. Morokuma, O. Farkas, 
 J. B. Foresman, and D. J. Fox, Gaussian, Inc., Wallingford CT, 2016.
 
 ******************************************
 Gaussian 16:  ES64L-G16RevA.03 25-Dec-2016
                23-Jan-2026 
 ******************************************
 %nprocshared=16
 Will use up to   16 processors via shared memory.
 %mem=16GB
 %oldchk=DDL-LR-15.chk
 %chk=DDL-LR-Eq-15.chk
 Copying data from "DDL-LR-15.chk" to current chk file "DDL-LR-Eq-15.chk"
 IOpt=  2 FromEx=T IUOpen= 4 IOptOp= 5 NList=   0 IFRang= 0 IUIn= 4 IUOut= 2.
 ----------------------------------------------------------------------
 #p CAM-B3LYP TZVP em=gd3bj td(Eqsolv,nstates=6,root=1) scrf=(Solvent=T
 etraHydroFuran) Geom=Check Guess=Read
 ----------------------------------------------------------------------
 1/29=2,38=1,172=1/1;
 2/12=2,40=1/2;
 3/5=19,7=101,11=9,14=-4,25=1,30=1,70=2201,72=20,74=-40,116=-2,124=41/1,2,3,8;
 4/5=1/1;
 5/5=2,38=6,53=20/2;
 8/6=1,10=1,107=1,108=6/1;
 9/8=1,41=6,42=1,70=2,73=2/14;
 6/7=2,8=2,9=2,10=2/1;
 99/5=1,9=1/99;
 Leave Link    1 at Fri Jan 23 16:29:28 2026, MaxMem=  2147483648 cpu:               0.9 elap:               0.1
 (Enter /data/home/wyx/g16/l101.exe)
 -------------------
 Title Card Required
 -------------------
 Structure from the checkpoint file:  "DDL-LR-Eq-15.chk"
 Charge =  0 Multiplicity = 1
 Z-Matrix found in chk file.
 O,0,2.834769,-1.563886,0.161385
 O,0,-3.418074,-1.618637,0.094504
 N,0,-0.632321,1.509615,-0.381216
 H,0,-0.940976,2.46667,-0.435865
 C,0,-1.236512,-0.757182,-0.225422
 C,0,0.703177,1.296323,-0.113137
 C,0,-1.608964,0.543817,-0.297362
 C,0,-2.224821,-1.826886,-0.092604
 C,0,0.222077,-1.114544,-0.368954
 H,0,0.47334,-1.962353,0.265024
 H,0,0.434632,-1.459386,-1.389975
 C,0,1.151779,0.022178,-0.018677
 C,0,2.512064,-0.393041,0.330576
 C,0,-3.000627,1.08645,-0.292964
 H,0,-3.003224,2.136355,-0.584761
 H,0,-3.643933,0.525716,-0.963633
 H,0,-3.44185,1.001786,0.699085
 C,0,-1.731415,-3.248389,-0.190817
 H,0,-2.583883,-3.918704,-0.249238
 H,0,-1.087711,-3.394883,-1.057463
 H,0,-1.14225,-3.505898,0.690741
 C,0,3.528726,0.544907,0.935674
 H,0,4.044357,1.101933,0.151503
 H,0,3.091794,1.258574,1.629308
 H,0,4.268339,-0.060731,1.453982
 C,0,1.468319,2.575425,0.034916
 H,0,1.502689,2.892012,1.078205
 H,0,2.483846,2.496586,-0.332097
 H,0,0.976655,3.366175,-0.530715
 Recover connectivity data from disk.
 ITRead=  0  0  0  0  0  0  0  0  0  0  0  0  0  0  0  0  0  0  0  0
 ITRead=  0  0  0  0  0  0  0  0  0
 MicOpt= -1 -1 -1 -1 -1 -1 -1 -1 -1 -1 -1 -1 -1 -1 -1 -1 -1 -1 -1 -1
 MicOpt= -1 -1 -1 -1 -1 -1 -1 -1 -1
 NAtoms=     29 NQM=       29 NQMF=       0 NMMI=      0 NMMIF=      0
                NMic=       0 NMicF=      0.
                    Isotopes and Nuclear Properties:
 (Nuclear quadrupole moments (NQMom) in fm**2, nuclear magnetic moments (NMagM)
  in nuclear magnetons)

  Atom         1           2           3           4           5           6           7           8           9          10
 IAtWgt=          16          16          14           1          12          12          12          12          12           1
 AtmWgt=  15.9949146  15.9949146  14.0030740   1.0078250  12.0000000  12.0000000  12.0000000  12.0000000  12.0000000   1.0078250
 NucSpn=           0           0           2           1           0           0           0           0           0           1
 AtZEff=   5.6000000   5.6000000   4.5500000   1.0000000   3.6000000   3.6000000   3.6000000   3.6000000   3.6000000   1.0000000
 NQMom=    0.0000000   0.0000000   2.0440000   0.0000000   0.0000000   0.0000000   0.0000000   0.0000000   0.0000000   0.0000000
 NMagM=    0.0000000   0.0000000   0.4037610   2.7928460   0.0000000   0.0000000   0.0000000   0.0000000   0.0000000   2.7928460
 AtZNuc=   8.0000000   8.0000000   7.0000000   1.0000000   6.0000000   6.0000000   6.0000000   6.0000000   6.0000000   1.0000000

  Atom        11          12          13          14          15          16          17          18          19          20
 IAtWgt=           1          12          12          12           1           1           1          12           1           1
 AtmWgt=   1.0078250  12.0000000  12.0000000  12.0000000   1.0078250   1.0078250   1.0078250  12.0000000   1.0078250   1.0078250
 NucSpn=           1           0           0           0           1           1           1           0           1           1
 AtZEff=   1.0000000   3.6000000   3.6000000   3.6000000   1.0000000   1.0000000   1.0000000   3.6000000   1.0000000   1.0000000
 NQMom=    0.0000000   0.0000000   0.0000000   0.0000000   0.0000000   0.0000000   0.0000000   0.0000000   0.0000000   0.0000000
 NMagM=    2.7928460   0.0000000   0.0000000   0.0000000   2.7928460   2.7928460   2.7928460   0.0000000   2.7928460   2.7928460
 AtZNuc=   1.0000000   6.0000000   6.0000000   6.0000000   1.0000000   1.0000000   1.0000000   6.0000000   1.0000000   1.0000000

  Atom        21          22          23          24          25          26          27          28          29
 IAtWgt=           1          12           1           1           1          12           1           1           1
 AtmWgt=   1.0078250  12.0000000   1.0078250   1.0078250   1.0078250  12.0000000   1.0078250   1.0078250   1.0078250
 NucSpn=           1           0           1           1           1           0           1           1           1
 AtZEff=   1.0000000   3.6000000   1.0000000   1.0000000   1.0000000   3.6000000   1.0000000   1.0000000   1.0000000
 NQMom=    0.0000000   0.0000000   0.0000000   0.0000000   0.0000000   0.0000000   0.0000000   0.0000000   0.0000000
 NMagM=    2.7928460   0.0000000   2.7928460   2.7928460   2.7928460   0.0000000   2.7928460   2.7928460   2.7928460
 AtZNuc=   1.0000000   6.0000000   1.0000000   1.0000000   1.0000000   6.0000000   1.0000000   1.0000000   1.0000000
 Leave Link  101 at Fri Jan 23 16:29:30 2026, MaxMem=  2147483648 cpu:               0.8 elap:               0.1
 (Enter /data/home/wyx/g16/l202.exe)
                          Input orientation:                          
 ---------------------------------------------------------------------
 Center     Atomic      Atomic             Coordinates (Angstroms)
 Number     Number       Type             X           Y           Z
 ---------------------------------------------------------------------
      1          8           0        2.834769   -1.563886    0.161385
      2          8           0       -3.418074   -1.618637    0.094504
      3          7           0       -0.632321    1.509615   -0.381216
      4          1           0       -0.940976    2.466670   -0.435865
      5          6           0       -1.236512   -0.757182   -0.225422
      6          6           0        0.703177    1.296323   -0.113137
      7          6           0       -1.608964    0.543817   -0.297362
      8          6           0       -2.224821   -1.826886   -0.092604
      9          6           0        0.222077   -1.114544   -0.368954
     10          1           0        0.473340   -1.962353    0.265024
     11          1           0        0.434632   -1.459386   -1.389975
     12          6           0        1.151779    0.022178   -0.018677
     13          6           0        2.512064   -0.393041    0.330576
     14          6           0       -3.000627    1.086450   -0.292964
     15          1           0       -3.003224    2.136355   -0.584761
     16          1           0       -3.643933    0.525716   -0.963633
     17          1           0       -3.441850    1.001786    0.699085
     18          6           0       -1.731415   -3.248389   -0.190817
     19          1           0       -2.583883   -3.918704   -0.249238
     20          1           0       -1.087711   -3.394883   -1.057463
     21          1           0       -1.142250   -3.505898    0.690741
     22          6           0        3.528726    0.544907    0.935674
     23          1           0        4.044357    1.101933    0.151503
     24          1           0        3.091794    1.258574    1.629308
     25          1           0        4.268339   -0.060731    1.453982
     26          6           0        1.468319    2.575425    0.034916
     27          1           0        1.502689    2.892012    1.078205
     28          1           0        2.483846    2.496586   -0.332097
     29          1           0        0.976655    3.366175   -0.530715
 ---------------------------------------------------------------------
                    Distance matrix (angstroms):
                    1          2          3          4          5
     1  O    0.000000
     2  O    6.253440   0.000000
     3  N    4.664926   4.215767   0.000000
     4  H    5.555028   4.806978   1.007079   0.000000
     5  C    4.168419   2.367207   2.351103   3.244202   0.000000
     6  C    3.577687   5.052209   1.378737   2.043797   2.826992
     7  C    4.939598   2.846515   1.376092   2.040283   1.355173
     8  C    5.072783   1.225655   3.708314   4.494520   1.462416
     9  C    2.703577   3.703998   2.759775   3.765935   1.508572
    10  H    2.397053   3.910284   3.700632   4.701891   2.148620
    11  H    2.859772   4.131874   3.312242   4.268084   2.154529
    12  C    2.319585   4.856814   2.350939   3.244874   2.520730
    13  C    1.226231   6.060062   3.743515   4.548501   3.807040
    14  C    6.425151   2.764397   2.407432   2.483463   2.552576
    15  H    6.952027   3.838420   2.460775   2.093835   3.409245
    16  H    6.899687   2.401857   3.221347   3.369246   2.826032
    17  H    6.802039   2.689368   3.052604   3.112614   2.968535
    18  C    4.879716   2.362693   4.887009   5.774664   2.540126
    19  H    5.922463   2.470697   5.769979   6.595982   3.436742
    20  H    4.497109   3.148439   4.971800   5.896246   2.769820
    21  H    4.457388   3.016062   5.154075   6.081227   2.898910
    22  C    2.351193   7.324378   4.469807   5.054951   5.074551
    23  H    2.927421   7.943087   4.724543   5.202024   5.611235
    24  H    3.191730   7.280958   4.239606   4.689101   5.122258
    25  H    2.446509   7.959661   5.463553   6.090668   5.797312
    26  C    4.360857   6.439763   2.392030   2.457268   4.300018
    27  H    4.740256   6.747409   2.932439   2.905998   4.745449
    28  H    4.105375   7.207615   3.269101   3.426524   4.943627
    29  H    5.313858   6.674795   2.461294   2.120239   4.689711
                    6          7          8          9         10
     6  C    0.000000
     7  C    2.438483   0.000000
     8  C    4.281125   2.457934   0.000000
     9  C    2.471675   2.471436   2.563418   0.000000
    10  H    3.288586   3.306532   2.725128   1.088045   0.000000
    11  H    3.048994   3.063154   2.981764   1.098444   1.730172
    12  C    1.354109   2.823380   3.850445   1.509694   2.116395
    13  C    2.514539   4.272573   4.967200   2.500790   2.573603
    14  C    3.714101   1.493719   3.021514   3.903328   4.655641
    15  H    3.829555   2.136056   4.068834   4.584483   5.441327
    16  H    4.496059   2.141342   2.882240   4.241477   4.965080
    17  H    4.234112   2.135910   3.179515   4.363934   4.929832
    18  C    5.156324   3.795678   1.507901   2.898475   2.592802
    19  H    6.166019   4.568028   2.128183   3.968760   3.665841
    20  H    5.109447   4.045098   2.163929   2.718370   2.497598
    21  H    5.207029   4.194563   2.145850   2.950070   2.274620
    22  C    3.106181   5.283582   6.307619   3.922978   4.008929
    23  H    3.357277   5.698510   6.923883   4.448985   4.706899
    24  H    2.956862   5.130308   6.383685   4.226111   4.369433
    25  H    4.124056   6.162416   6.904517   4.561343   4.408152
    26  C    1.497820   3.702366   5.747685   3.915623   4.651275
    27  H    2.145865   4.133835   6.126428   4.448227   5.028487
    28  H    2.158554   4.534932   6.396977   4.261129   4.927558
    29  H    2.129190   3.834786   6.116312   4.546691   5.411075
                   11         12         13         14         15
    11  H    0.000000
    12  C    2.142379   0.000000
    13  C    2.900536   1.464500   0.000000
    14  C    4.414263   4.295391   5.741730   0.000000
    15  H    5.039502   4.696195   6.136293   1.089703   0.000000
    16  H    4.555995   4.913791   6.357310   1.085386   1.774320
    17  H    5.044666   4.751446   6.126209   1.089039   1.768587
    18  C    3.054549   4.363376   5.141204   4.517982   5.546905
    19  H    4.057211   5.434968   6.223758   5.022664   6.078829
    20  H    2.484802   4.215531   4.888362   4.932145   5.872583
    21  H    3.317250   4.267688   4.813897   5.050832   6.076607
    22  C    4.358813   2.614175   1.509799   6.665979   6.892808
    23  H    4.686857   3.092222   2.148240   7.059008   7.161041
    24  H    4.854265   2.829874   2.179593   6.390802   6.543840
    25  H    4.974097   3.447977   2.111154   7.563446   7.865068
    26  C    4.402104   2.573352   3.160476   4.721867   4.535579
    27  H    5.115401   3.092286   3.517010   5.041826   4.862070
    28  H    4.579094   2.827601   2.964772   5.662990   5.504684
    29  H    4.931344   3.387502   4.151025   4.590473   4.165911
                   16         17         18         19         20
    16  H    0.000000
    17  H    1.741296   0.000000
    18  C    4.301028   4.667066   0.000000
    19  H    4.624601   5.083960   1.086019   0.000000
    20  H    4.681257   5.287545   1.089445   1.779367   0.000000
    21  H    5.024866   5.060380   1.091133   1.769823   1.752574
    22  C    7.419890   6.989538   6.582337   7.661059   6.387960
    23  H    7.790081   7.506875   7.238924   8.324719   6.929724
    24  H    7.254684   6.604526   6.847548   7.908631   6.807471
    25  H    8.294144   7.819580   6.990249   8.045984   6.790523
    26  C    5.597636   5.198771   6.648764   7.659948   6.585678
    27  H    6.021310   5.307085   7.055095   8.052827   7.127152
    28  H    6.467831   6.197712   7.126929   8.175860   6.927596
    29  H    5.441090   5.160032   7.155531   8.113330   7.088792
                   21         22         23         24         25
    21  H    0.000000
    22  C    6.187651   0.000000
    23  H    6.958719   1.091365   0.000000
    24  H    6.442688   1.086903   1.765169   0.000000
    25  H    6.459581   1.087413   1.760229   1.776390   0.000000
    26  C    6.650388   3.029793   2.969974   2.629040   4.099168
    27  H    6.933908   3.103875   3.243954   2.344587   4.063092
    28  H    7.086931   2.551092   2.148050   2.397787   3.593656
    29  H    7.294320   4.077121   3.873372   3.685308   5.149552
                   26         27         28         29
    26  C    0.000000
    27  H    1.090807   0.000000
    28  H    1.082686   1.762947   0.000000
    29  H    1.089476   1.757887   1.751359   0.000000
 Stoichiometry    C11H15NO2
 Framework group  C1[X(C11H15NO2)]
 Deg. of freedom    81
 Full point group                 C1      NOp   1
 RotChk:  IX=0 Diff= 6.13D-16
 Largest Abelian subgroup         C1      NOp   1
 Largest concise Abelian subgroup C1      NOp   1
                         Standard orientation:                         
 ---------------------------------------------------------------------
 Center     Atomic      Atomic             Coordinates (Angstroms)
 Number     Number       Type             X           Y           Z
 ---------------------------------------------------------------------
      1          8           0        2.288173   -2.277117   -0.189024
      2          8           0       -3.590662   -0.245161    0.455929
      3          7           0        0.025749    1.801950   -0.253721
      4          1           0        0.054293    2.808609   -0.248223
      5          6           0       -1.289280   -0.139967   -0.088357
      6          6           0        1.230515    1.140379   -0.145196
      7          6           0       -1.206127    1.212645   -0.083923
      8          6           0       -2.562300   -0.826230    0.128730
      9          6           0       -0.058523   -0.952312   -0.406356
     10          1           0       -0.046744   -1.873299    0.172855
     11          1           0       -0.076681   -1.283671   -1.453472
     12          6           0        1.229935   -0.213694   -0.135255
     13          6           0        2.397793   -1.078598    0.045874
     14          6           0       -2.325458    2.185775    0.093026
     15          1           0       -2.002477    3.192857   -0.169502
     16          1           0       -3.183101    1.913962   -0.514121
     17          1           0       -2.669144    2.190814    1.126400
     18          6           0       -2.589674   -2.321824   -0.061575
     19          1           0       -3.619655   -2.665473   -0.039641
     20          1           0       -2.122039   -2.619557   -0.999426
     21          1           0       -2.037958   -2.815170    0.740167
     22          6           0        3.725755   -0.571876    0.555031
     23          1           0        4.318989   -0.170152   -0.268235
     24          1           0        3.625970    0.201633    1.312056
     25          1           0        4.265001   -1.420139    0.969918
     26          6           0        2.392987    2.080342   -0.052517
     27          1           0        2.634975    2.301610    0.987840
     28          1           0        3.280866    1.691396   -0.534804
     29          1           0        2.143647    3.023306   -0.537911
 ---------------------------------------------------------------------
 Rotational constants (GHZ):           1.0786639           0.4907029           0.3470699
 Leave Link  202 at Fri Jan 23 16:29:30 2026, MaxMem=  2147483648 cpu:               0.0 elap:               0.0
 (Enter /data/home/wyx/g16/l301.exe)
 Standard basis: TZVP (5D, 7F)
 Ernie: Thresh=  0.10000D-02 Tol=  0.10000D-05 Strict=F.
 There are   370 symmetry adapted cartesian basis functions of A   symmetry.
 There are   356 symmetry adapted basis functions of A   symmetry.
   356 basis functions,   610 primitive gaussians,   370 cartesian basis functions
    52 alpha electrons       52 beta electrons
       nuclear repulsion energy       900.7859719639 Hartrees.
 IExCor=20419 DFT=T Ex+Corr=CAM-B3LYP ExCW=0 ScaHFX=  1.000000
 ScaDFX=  1.000000  1.000000  1.000000  0.810000 ScalE2=  1.000000  1.000000
 IRadAn=      5 IRanWt=     -1 IRanGd=            0 ICorTp=0 IEmpDi=141
 HFx  wShort=  0.000000 wLong=  0.330000 cFull=  0.190000 cShort=  0.000000 cLong=  0.460000
 DFx  wShort=  0.000000 wLong=  0.330000 cFull=  0.190000 cShort=  0.000000 cLong=  0.460000
 NAtoms=   29 NActive=   29 NUniq=   29 SFac= 1.00D+00 NAtFMM=   60 NAOKFM=F Big=F
 Integral buffers will be    131072 words long.
 Raffenetti 1 integral format.
 Two-electron integral symmetry is turned on.
 R6Disp:  Grimme-D3(BJ) Dispersion energy=       -0.0262092189 Hartrees.
 Nuclear repulsion after empirical dispersion term =      900.7597627450 Hartrees.
 ------------------------------------------------------------------------------
 Polarizable Continuum Model (PCM)
 =================================
 Model                : PCM.
 Atomic radii         : UFF (Universal Force Field).
 Polarization charges : Total charges.
 Charge compensation  : None.
 Solution method      : On-the-fly selection.
 Cavity type          : Scaled VdW (van der Waals Surface) (Alpha=1.100).
 Cavity algorithm     : GePol (No added spheres)
                        Default sphere list used, NSphG=   29.
                        Lebedev-Laikov grids with approx.  5.0 points / Ang**2.
                        Smoothing algorithm: York/Karplus (Gamma=1.0000).
                        Polarization charges: spherical gaussians, with
                                              point-specific exponents (IZeta= 3).
                        Self-potential: point-specific (ISelfS= 7).
                        Self-field    : sphere-specific E.n sum rule (ISelfD= 2).
 Solvent              : TetraHydroFuran, Eps=   7.425700 Eps(inf)=   1.974025
 ------------------------------------------------------------------------------
 GePol: Number of generator spheres                  =      29
 GePol: Total number of spheres                      =      29
 GePol: Number of exposed spheres                    =      29 (100.00%)
 GePol: Number of points                             =    2094
 GePol: Average weight of points                     =       0.13
 GePol: Minimum weight of points                     =   0.11D-10
 GePol: Maximum weight of points                     =    0.20577
 GePol: Number of points with low weight             =     149
 GePol: Fraction of low-weight points (<1% of avg)   =       7.12%
 GePol: Cavity surface area                          =    268.725 Ang**2
 GePol: Cavity volume                                =    286.767 Ang**3
 Leave Link  301 at Fri Jan 23 16:29:31 2026, MaxMem=  2147483648 cpu:               0.6 elap:               0.0
 (Enter /data/home/wyx/g16/l302.exe)
 NPDir=0 NMtPBC=     1 NCelOv=     1 NCel=       1 NClECP=     1 NCelD=      1
         NCelK=      1 NCelE2=     1 NClLst=     1 CellRange=     0.0.
 One-electron integrals computed using PRISM.
 One-electron integral symmetry used in STVInt
 NBasis=   356 RedAO= T EigKep=  4.73D-05  NBF=   356
 NBsUse=   356 1.00D-06 EigRej= -1.00D+00 NBFU=   356
 Precomputing XC quadrature grid using
 IXCGrd= 4 IRadAn=           5 IRanWt=          -1 IRanGd=           0 AccXCQ= 0.00D+00.
 Generated NRdTot=       0 NPtTot=           0 NUsed=           0 NTot=          32
 NSgBfM=   366   366   366   366   366 MxSgAt=    29 MxSgA2=    29.
 Leave Link  302 at Fri Jan 23 16:29:31 2026, MaxMem=  2147483648 cpu:               3.2 elap:               0.2
 (Enter /data/home/wyx/g16/l303.exe)
 DipDrv:  MaxL=1.
 Leave Link  303 at Fri Jan 23 16:29:31 2026, MaxMem=  2147483648 cpu:               0.6 elap:               0.0
 (Enter /data/home/wyx/g16/l308.exe)
 Leave Link  308 at Fri Jan 23 16:29:31 2026, MaxMem=  2147483648 cpu:               0.7 elap:               0.1
 (Enter /data/home/wyx/g16/l401.exe)
 Initial guess from the checkpoint file:  "DDL-LR-Eq-15.chk"
 B after Tr=    -0.000000   -0.000000    0.000000
         Rot=    1.000000   -0.000000    0.000000   -0.000000 Ang=   0.00 deg.
 Guess basis will be translated and rotated to current coordinates.
 JPrj=2 DoOrth=T DoCkMO=T.
 Leave Link  401 at Fri Jan 23 16:29:32 2026, MaxMem=  2147483648 cpu:               2.2 elap:               0.2
 (Enter /data/home/wyx/g16/l502.exe)
 Integral symmetry usage will be decided dynamically.
 Closed shell SCF:
 Using DIIS extrapolation, IDIIS=  1040.
 NGot=  2147483648 LenX=  2147200095 LenY=  2147062754
 Requested convergence on RMS density matrix=1.00D-08 within 128 cycles.
 Requested convergence on MAX density matrix=1.00D-06.
 Requested convergence on             energy=1.00D-06.
 No special actions if energy rises.
 Fock matrices will be formed incrementally for  20 cycles.

 Cycle   1  Pass 1  IDiag  1:
 FoFJK:  IHMeth= 1 ICntrl=       0 DoSepK=T KAlg= 0 I1Cent=           0 FoldK=F
 IRaf=         1 NMat=       1 IRICut=       1 DoRegI=T DoRafI=F ISym2E= 0 IDoP0=0 IntGTp=1.
 FoFCou: FMM=F IPFlag=           0 FMFlag=      100000 FMFlg1=           0
         NFxFlg=           0 DoJE=T BraDBF=F KetDBF=F FulRan=T
         wScrn=  0.000000 ICntrl=       500 IOpCl=  0 I1Cent=           0 NGrid=           0
         NMat0=    1 NMatS0=      1 NMatT0=    0 NMatD0=    1 NMtDS0=    0 NMtDT0=    0
 Symmetry not used in FoFCou.
 Inv3:  Mode=1 IEnd=    13154508.
 Iteration    1 A*A^-1 deviation from unit magnitude is 3.11D-15 for    793.
 Iteration    1 A*A^-1 deviation from orthogonality  is 2.70D-15 for   2019   1553.
 Iteration    1 A^-1*A deviation from unit magnitude is 3.00D-15 for     70.
 Iteration    1 A^-1*A deviation from orthogonality  is 2.17D-15 for   1499   1262.
 E= -633.328890911493    
 DIIS: error= 1.55D-08 at cycle   1 NSaved=   1.
 NSaved= 1 IEnMin= 1 EnMin= -633.328890911493     IErMin= 1 ErrMin= 1.55D-08
 ErrMax= 1.55D-08  0.00D+00 EMaxC= 1.00D-01 BMatC= 6.54D-14 BMatP= 6.54D-14
 IDIUse=1 WtCom= 1.00D+00 WtEn= 0.00D+00
 Coeff-Com:  0.100D+01
 Coeff:      0.100D+01
 Gap=     0.239 Goal=   None    Shift=    0.000
 RMSDP=2.83D-09 MaxDP=8.44D-08              OVMax= 3.49D-07

 Error on total polarization charges =  0.01422
 SCF Done:  E(RCAM-B3LYP) =  -633.328890911     A.U. after    1 cycles
            NFock=  1  Conv=0.28D-08     -V/T= 2.0041
 KE= 6.307168802717D+02 PE=-3.277609750911D+03 EE= 1.112804216983D+03
 Leave Link  502 at Fri Jan 23 16:29:38 2026, MaxMem=  2147483648 cpu:              85.7 elap:               5.6
 (Enter /data/home/wyx/g16/l801.exe)
 DoSCS=F DFT=T ScalE2(SS,OS)=  1.000000  1.000000
 ExpMin= 9.52D-02 ExpMax= 2.70D+04 ExpMxC= 9.22D+02 IAcc=3 IRadAn=         5 AccDes= 0.00D+00
 HarFok:  IExCor=  205 AccDes= 0.00D+00 IRadAn=         5 IDoV=-2 UseB2=F ITyADJ=14
 ICtDFT= 12500011 ScaDFX=  1.000000  1.000000  1.000000  1.000000
 Largest valence mixing into a core orbital is  5.65D-05
 Largest core mixing into a valence orbital is  1.20D-05
 Range of M.O.s used for correlation:    15   356
 NBasis=   356 NAE=    52 NBE=    52 NFC=    14 NFV=     0
 NROrb=    342 NOA=    38 NOB=    38 NVA=   304 NVB=   304

 **** Warning!!: The largest alpha MO coefficient is  0.51703612D+02

 Leave Link  801 at Fri Jan 23 16:29:38 2026, MaxMem=  2147483648 cpu:               1.0 elap:               0.1
 (Enter /data/home/wyx/g16/l914.exe)
 RHF ground state
 Two-electron integrals replicated using symmetry.
 MDV=  2147483648 DFT=T DoStab=F Mixed=T DoRPA=T DoScal=F NonHer=T
 NEqPCM:  Using equilibrium solvation (IEInf=0, Eps=   7.4257, EpsInf=   1.9740)
 Making orbital integer symmetry assigments:
 Orbital symmetries:
       Occupied  (A) (A) (A) (A) (A) (A) (A) (A) (A) (A) (A) (A)
                 (A) (A) (A) (A) (A) (A) (A) (A) (A) (A) (A) (A)
                 (A) (A) (A) (A) (A) (A) (A) (A) (A) (A) (A) (A)
                 (A) (A) (A) (A) (A) (A) (A) (A) (A) (A) (A) (A)
                 (A) (A) (A) (A)
       Virtual   (A) (A) (A) (A) (A) (A) (A) (A) (A) (A) (A) (A)
                 (A) (A) (A) (A) (A) (A) (A) (A) (A) (A) (A) (A)
                 (A) (A) (A) (A) (A) (A) (A) (A) (A) (A) (A) (A)
                 (A) (A) (A) (A) (A) (A) (A) (A) (A) (A) (A) (A)
                 (A) (A) (A) (A) (A) (A) (A) (A) (A) (A) (A) (A)
                 (A) (A) (A) (A) (A) (A) (A) (A) (A) (A) (A) (A)
                 (A) (A) (A) (A) (A) (A) (A) (A) (A) (A) (A) (A)
                 (A) (A) (A) (A) (A) (A) (A) (A) (A) (A) (A) (A)
                 (A) (A) (A) (A) (A) (A) (A) (A) (A) (A) (A) (A)
                 (A) (A) (A) (A) (A) (A) (A) (A) (A) (A) (A) (A)
                 (A) (A) (A) (A) (A) (A) (A) (A) (A) (A) (A) (A)
                 (A) (A) (A) (A) (A) (A) (A) (A) (A) (A) (A) (A)
                 (A) (A) (A) (A) (A) (A) (A) (A) (A) (A) (A) (A)
                 (A) (A) (A) (A) (A) (A) (A) (A) (A) (A) (A) (A)
                 (A) (A) (A) (A) (A) (A) (A) (A) (A) (A) (A) (A)
                 (A) (A) (A) (A) (A) (A) (A) (A) (A) (A) (A) (A)
                 (A) (A) (A) (A) (A) (A) (A) (A) (A) (A) (A) (A)
                 (A) (A) (A) (A) (A) (A) (A) (A) (A) (A) (A) (A)
                 (A) (A) (A) (A) (A) (A) (A) (A) (A) (A) (A) (A)
                 (A) (A) (A) (A) (A) (A) (A) (A) (A) (A) (A) (A)
                 (A) (A) (A) (A) (A) (A) (A) (A) (A) (A) (A) (A)
                 (A) (A) (A) (A) (A) (A) (A) (A) (A) (A) (A) (A)
                 (A) (A) (A) (A) (A) (A) (A) (A) (A) (A) (A) (A)
                 (A) (A) (A) (A) (A) (A) (A) (A) (A) (A) (A) (A)
                 (A) (A) (A) (A) (A) (A) (A) (A) (A) (A) (A) (A)
                 (A) (A) (A) (A)
    24 initial guesses have been made.
 Convergence on wavefunction:    0.001000000000000
 Davidson Disk Diagonalization:  ConvIn= 1.00D-03 SkipCon=T Conv= 1.00D-03.
 Max sub-space:  2000 roots to seek:    24 dimension of matrix:        23104
 Iteration     1 Dimension    24 NMult     0 NNew     24
 CISAX will form    24 AO SS matrices at one time.
 NMat=    24 NSing=    24 JSym2X= 0.
 FoFJK:  IHMeth= 1 ICntrl=       0 DoSepK=T KAlg= 0 I1Cent=           0 FoldK=F
 IRaf=         1 NMat=      48 IRICut=       1 DoRegI=T DoRafI=F ISym2E= 0 IDoP0=3 IntGTp=3.
 FoFCou: FMM=F IPFlag=           0 FMFlag=      100000 FMFlg1=           0
         NFxFlg=           0 DoJE=F BraDBF=F KetDBF=F FulRan=T
         wScrn=  0.000000 ICntrl=       500 IOpCl=  0 I1Cent=           0 NGrid=           0
         NMat0=   24 NMatS0=     24 NMatT0=    0 NMatD0=   24 NMtDS0=    0 NMtDT0=    0
 Symmetry not used in FoFCou.
 New state      2 was old state      3
 New state      3 was old state      4
 New state      4 was old state      2
 New state      5 was old state      6
 New state      6 was old state      5
 Excitation Energies [eV] at current iteration:
 Root      1 :     3.907358543649136
 Root      2 :     4.339657338817896
 Root      3 :     4.523221444875333
 Root      4 :     5.536308343649493
 Root      5 :     6.170523632955056
 Root      6 :     6.348794209283972
 Root      7 :     6.735111981114370
 Root      8 :     6.785198122211064
 Root      9 :     7.020918142971348
 Root     10 :     7.073474622063422
 Root     11 :     7.226759963991004
 Root     12 :     7.444631920679151
 Root     13 :     7.595452008578464
 Root     14 :     7.681727746937662
 Root     15 :     7.778722121767234
 Root     16 :     8.000805658588893
 Root     17 :     8.124732984613498
 Root     18 :     8.263301331793498
 Root     19 :     8.272892515769394
 Root     20 :     8.581031636126619
 Root     21 :     8.673488022624205
 Root     22 :     8.938229203138118
 Root     23 :     9.014880134713772
 Root     24 :     9.139667996508512
 Iteration     2 Dimension    36 NMult    24 NNew     12
 CISAX will form    12 AO SS matrices at one time.
 NMat=    12 NSing=    12 JSym2X= 0.
 Root      1 not converged, maximum delta is    0.048369755961038
 Root      2 not converged, maximum delta is    0.073310895261478
 Root      3 not converged, maximum delta is    0.091687947643554
 Root      4 not converged, maximum delta is    0.339024767631949
 New state      5 was old state      6
 Root      5 not converged, maximum delta is    0.380281018257086
 New state      6 was old state      5
 Root      6 not converged, maximum delta is    0.265166906208944
 Excitation Energies [eV] at current iteration:
 Root      1 :     3.483981647545709   Change is   -0.423376896103427
 Root      2 :     4.101323947626012   Change is   -0.238333391191884
 Root      3 :     4.247038447141414   Change is   -0.276182997733919
 Root      4 :     5.124649620885229   Change is   -0.411658722764264
 Root      5 :     5.600743855919140   Change is   -0.748050353364832
 Root      6 :     6.054416125630528   Change is   -0.116107507324527
 Iteration     3 Dimension    48 NMult    36 NNew     12
 CISAX will form    12 AO SS matrices at one time.
 NMat=    12 NSing=    12 JSym2X= 0.
 Root      1 not converged, maximum delta is    0.007662614033537
 Root      2 not converged, maximum delta is    0.013492619453726
 Root      3 not converged, maximum delta is    0.013451673029255
 Root      4 not converged, maximum delta is    0.013210689204991
 Root      5 not converged, maximum delta is    0.013365450867503
 Root      6 not converged, maximum delta is    0.019103629634813
 Excitation Energies [eV] at current iteration:
 Root      1 :     3.469016755580105   Change is   -0.014964891965604
 Root      2 :     4.087802650535031   Change is   -0.013521297090981
 Root      3 :     4.232917363300105   Change is   -0.014121083841309
 Root      4 :     5.103865737245213   Change is   -0.020783883640016
 Root      5 :     5.583019230730589   Change is   -0.017724625188551
 Root      6 :     6.043659640079903   Change is   -0.010756485550625
 Iteration     4 Dimension    60 NMult    48 NNew     12
 CISAX will form    12 AO SS matrices at one time.
 NMat=    12 NSing=    12 JSym2X= 0.
 Root      1 not converged, maximum delta is    0.002081455531689
 Root      2 not converged, maximum delta is    0.002106737161016
 Root      3 not converged, maximum delta is    0.002170998747276
 Root      4 not converged, maximum delta is    0.003144499134575
 Root      5 not converged, maximum delta is    0.002523349912902
 Root      6 not converged, maximum delta is    0.003709435887272
 Excitation Energies [eV] at current iteration:
 Root      1 :     3.467776326716835   Change is   -0.001240428863270
 Root      2 :     4.086955574582706   Change is   -0.000847075952325
 Root      3 :     4.232088652023462   Change is   -0.000828711276643
 Root      4 :     5.102250552983235   Change is   -0.001615184261979
 Root      5 :     5.581406706386204   Change is   -0.001612524344385
 Root      6 :     6.042926226636856   Change is   -0.000733413443047
 Iteration     5 Dimension    72 NMult    60 NNew     12
 CISAX will form    12 AO SS matrices at one time.
 NMat=    12 NSing=    12 JSym2X= 0.
 Root      1 has converged.
 Root      2 has converged.
 Root      3 has converged.
 Root      4 has converged.
 Root      5 not converged, maximum delta is    0.001003170079100
 Root      6 has converged.
 Excitation Energies [eV] at current iteration:
 Root      1 :     3.467715824325007   Change is   -0.000060502391827
 Root      2 :     4.086911773328925   Change is   -0.000043801253781
 Root      3 :     4.232043563283980   Change is   -0.000045088739482
 Root      4 :     5.102108761609344   Change is   -0.000141791373891
 Root      5 :     5.581250606278713   Change is   -0.000156100107491
 Root      6 :     6.042877163970362   Change is   -0.000049062666494
 Iteration     6 Dimension    74 NMult    72 NNew      2
 CISAX will form     2 AO SS matrices at one time.
 NMat=     2 NSing=     2 JSym2X= 0.
 Root      1 has converged.
 Root      2 has converged.
 Root      3 has converged.
 Root      4 has converged.
 Root      5 has converged.
 Root      6 has converged.
 Excitation Energies [eV] at current iteration:
 Root      1 :     3.467715800336154   Change is   -0.000000023988854
 Root      2 :     4.086911744974746   Change is   -0.000000028354180
 Root      3 :     4.232043518287968   Change is   -0.000000044996012
 Root      4 :     5.102106585751979   Change is   -0.000002175857365
 Root      5 :     5.581240691130698   Change is   -0.000009915148015
 Root      6 :     6.042877020546604   Change is   -0.000000143423757
 Convergence achieved on expansion vectors.
 ***********************************************************************
 Excited states from <AA,BB:AA,BB> singles matrix:
 ***********************************************************************
 
 1PDM for each excited state written to RWF  633
 Ground to excited state transition densities written to RWF  633
 Ground to excited state transition electric dipole moments (Au):
       state          X           Y           Z        Dip. S.      Osc.
         1        -1.6060      0.1979      0.0496      2.6209      0.2227
         2        -0.1707     -0.0062      0.0463      0.0313      0.0031
         3        -0.0018      0.1488     -0.0380      0.0236      0.0024
         4        -0.1961     -1.7672      0.1405      3.1813      0.3977
         5        -0.0591     -1.4637      0.0290      2.1468      0.2935
         6         0.0302      0.2372      0.0733      0.0626      0.0093
 Ground to excited state transition velocity dipole moments (Au):
       state          X           Y           Z        Dip. S.      Osc.
         1         0.1964     -0.0204     -0.0071      0.0391      0.2043
         2         0.0247      0.0012     -0.0042      0.0006      0.0028
         3         0.0005     -0.0218      0.0024      0.0005      0.0021
         4         0.0388      0.3176     -0.0213      0.1028      0.3657
         5         0.0124      0.2948     -0.0068      0.0871      0.2832
         6        -0.0072     -0.0490     -0.0355      0.0037      0.0112
 Ground to excited state transition magnetic dipole moments (Au):
       state          X           Y           Z
         1        -0.0916      0.0081     -1.4298
         2         0.8085     -0.1467     -0.3805
         3         0.1566     -1.0032     -0.1791
         4         0.0712     -0.1114      0.0874
         5         0.2074     -0.1070      0.2878
         6        -0.0511     -0.0111      0.0130
 Ground to excited state transition velocity quadrupole moments (Au):
       state          XX          YY          ZZ          XY          XZ          YZ
         1        -0.1748      0.1023      0.0003     -0.5522      0.0639      0.0114
         2        -0.0001     -0.0051      0.0026     -0.0661      0.0212      0.0866
         3         0.0112     -0.0100      0.0297     -0.0493      0.0660      0.0079
         4        -1.2792      0.3134     -0.0067      0.0899      0.0915     -0.0604
         5        -0.5292      0.2627      0.0539      0.2216      0.0713      0.0405
         6        -0.2491     -0.2190      0.1908      0.0151      0.0359      0.0280
 <0|del|b> * <b|rxdel|0> + <0|del|b> * <b|delr+rdel|0>
 Rotatory Strengths (R) in cgs (10**-40 erg-esu-cm/Gauss)
       state          XX          YY          ZZ    R(velocity)    E-M Angle
         1        42.4703    -26.3168    -60.2475    -14.6980       91.61
         2         3.9422     55.1066     41.5937     33.5475       19.62
         3        51.6952     -0.5358     46.5590     32.5728       17.97
         4      -128.6710      0.8928     -2.2874    -43.3552      132.74
         5       -96.5893      4.5197    -14.5974    -35.5557      106.43
         6         2.0754      0.3845     -1.0340      0.4753       82.17
 1/2[<0|r|b>*<b|rxdel|0> + (<0|rxdel|b>*<b|r|0>)*]
 Rotatory Strengths (R) in cgs (10**-40 erg-esu-cm/Gauss)
       state          XX          YY          ZZ     R(length)
         1      -104.0768     -1.1354     50.1653    -18.3489
         2        97.6188     -0.6434     12.4587     36.4780
         3         0.2031    105.5598     -4.8059     33.6523
         4         9.8742   -139.2108     -8.6759    -46.0042
         5         8.6763   -110.7644     -5.9026    -35.9969
         6         1.0912      1.8568     -0.6759      0.7574
  1/2[<0|del|b>*<b|r|0> + (<0|r|b>*<b|del|0>)*] (Au)
       state          X           Y           Z        Dip. S.   Osc.(frdel)
         1        -0.3155     -0.0040     -0.0004      0.3199      0.2132
         2        -0.0042     -0.0000     -0.0002      0.0044      0.0029
         3        -0.0000     -0.0032     -0.0001      0.0033      0.0022
         4        -0.0076     -0.5613     -0.0030      0.5719      0.3813
         5        -0.0007     -0.4316     -0.0002      0.4325      0.2883
         6        -0.0002     -0.0116     -0.0026      0.0145      0.0096

 Excitation energies and oscillator strengths:
 
 Excited State   1:      Singlet-A      3.4677 eV  357.54 nm  f=0.2227  <S**2>=0.000
      52 -> 53         0.69814
 This state for optimization and/or second-order correction.
 Total Energy, E(TD-HF/TD-DFT) =  -633.201454701    
 Copying the excited state density for this state as the 1-particle RhoCI density.
 
 Excited State   2:      Singlet-A      4.0869 eV  303.37 nm  f=0.0031  <S**2>=0.000
      50 -> 54         0.19384
      51 -> 53         0.55943
      51 -> 54         0.33259
 
 Excited State   3:      Singlet-A      4.2320 eV  292.97 nm  f=0.0024  <S**2>=0.000
      49 -> 53         0.20347
      49 -> 54        -0.14310
      50 -> 53         0.53452
      50 -> 54        -0.26548
      50 -> 58         0.11228
      51 -> 54         0.20965
 
 Excited State   4:      Singlet-A      5.1021 eV  243.01 nm  f=0.3977  <S**2>=0.000
      52 -> 54         0.69223
 
 Excited State   5:      Singlet-A      5.5812 eV  222.14 nm  f=0.2935  <S**2>=0.000
      49 -> 53         0.62741
      50 -> 53        -0.23756
      51 -> 53         0.14253
 
 Excited State   6:      Singlet-A      6.0429 eV  205.17 nm  f=0.0093  <S**2>=0.000
      52 -> 55         0.66073
      52 -> 56         0.14145
 SavETr:  write IOETrn=   770 NScale= 10 NData=  16 NLR=1 NState=    6 LETran=     118.
 Leave Link  914 at Fri Jan 23 16:31:46 2026, MaxMem=  2147483648 cpu:            2043.2 elap:             128.1
 (Enter /data/home/wyx/g16/l601.exe)
 Copying SCF densities to generalized density rwf, IOpCl= 0 IROHF=0.

 **********************************************************************

            Population analysis using the SCF density.

 **********************************************************************

 Orbital symmetries:
       Occupied  (A) (A) (A) (A) (A) (A) (A) (A) (A) (A) (A) (A)
                 (A) (A) (A) (A) (A) (A) (A) (A) (A) (A) (A) (A)
                 (A) (A) (A) (A) (A) (A) (A) (A) (A) (A) (A) (A)
                 (A) (A) (A) (A) (A) (A) (A) (A) (A) (A) (A) (A)
                 (A) (A) (A) (A)
       Virtual   (A) (A) (A) (A) (A) (A) (A) (A) (A) (A) (A) (A)
                 (A) (A) (A) (A) (A) (A) (A) (A) (A) (A) (A) (A)
                 (A) (A) (A) (A) (A) (A) (A) (A) (A) (A) (A) (A)
                 (A) (A) (A) (A) (A) (A) (A) (A) (A) (A) (A) (A)
                 (A) (A) (A) (A) (A) (A) (A) (A) (A) (A) (A) (A)
                 (A) (A) (A) (A) (A) (A) (A) (A) (A) (A) (A) (A)
                 (A) (A) (A) (A) (A) (A) (A) (A) (A) (A) (A) (A)
                 (A) (A) (A) (A) (A) (A) (A) (A) (A) (A) (A) (A)
                 (A) (A) (A) (A) (A) (A) (A) (A) (A) (A) (A) (A)
                 (A) (A) (A) (A) (A) (A) (A) (A) (A) (A) (A) (A)
                 (A) (A) (A) (A) (A) (A) (A) (A) (A) (A) (A) (A)
                 (A) (A) (A) (A) (A) (A) (A) (A) (A) (A) (A) (A)
                 (A) (A) (A) (A) (A) (A) (A) (A) (A) (A) (A) (A)
                 (A) (A) (A) (A) (A) (A) (A) (A) (A) (A) (A) (A)
                 (A) (A) (A) (A) (A) (A) (A) (A) (A) (A) (A) (A)
                 (A) (A) (A) (A) (A) (A) (A) (A) (A) (A) (A) (A)
                 (A) (A) (A) (A) (A) (A) (A) (A) (A) (A) (A) (A)
                 (A) (A) (A) (A) (A) (A) (A) (A) (A) (A) (A) (A)
                 (A) (A) (A) (A) (A) (A) (A) (A) (A) (A) (A) (A)
                 (A) (A) (A) (A) (A) (A) (A) (A) (A) (A) (A) (A)
                 (A) (A) (A) (A) (A) (A) (A) (A) (A) (A) (A) (A)
                 (A) (A) (A) (A) (A) (A) (A) (A) (A) (A) (A) (A)
                 (A) (A) (A) (A) (A) (A) (A) (A) (A) (A) (A) (A)
                 (A) (A) (A) (A) (A) (A) (A) (A) (A) (A) (A) (A)
                 (A) (A) (A) (A) (A) (A) (A) (A) (A) (A) (A) (A)
                 (A) (A) (A) (A)
 The electronic state is 1-A.
 Alpha  occ. eigenvalues --  -19.17880 -19.17354 -14.44104 -10.33456 -10.33033
 Alpha  occ. eigenvalues --  -10.32011 -10.31440 -10.25943 -10.25076 -10.24817
 Alpha  occ. eigenvalues --  -10.24802 -10.24499 -10.24282 -10.23719  -1.12054
 Alpha  occ. eigenvalues --   -1.11563  -1.07480  -0.91230  -0.90231  -0.83818
 Alpha  occ. eigenvalues --   -0.82527  -0.81593  -0.78491  -0.74006  -0.71126
 Alpha  occ. eigenvalues --   -0.68564  -0.61543  -0.58198  -0.56772  -0.55170
 Alpha  occ. eigenvalues --   -0.54539  -0.53984  -0.52583  -0.51915  -0.50766
 Alpha  occ. eigenvalues --   -0.50000  -0.49505  -0.49127  -0.48618  -0.48139
 Alpha  occ. eigenvalues --   -0.46883  -0.45341  -0.45103  -0.43432  -0.43078
 Alpha  occ. eigenvalues --   -0.42389  -0.42057  -0.42008  -0.32806  -0.32218
 Alpha  occ. eigenvalues --   -0.31215  -0.26169
 Alpha virt. eigenvalues --   -0.02222   0.02498   0.06301   0.08085   0.08527
 Alpha virt. eigenvalues --    0.10056   0.10727   0.11940   0.12619   0.13503
 Alpha virt. eigenvalues --    0.14239   0.14867   0.15622   0.16072   0.16891
 Alpha virt. eigenvalues --    0.17489   0.17833   0.17896   0.18135   0.19177
 Alpha virt. eigenvalues --    0.19898   0.22043   0.22641   0.23441   0.23615
 Alpha virt. eigenvalues --    0.23910   0.24825   0.25539   0.25934   0.26402
 Alpha virt. eigenvalues --    0.26858   0.27249   0.28781   0.29117   0.30123
 Alpha virt. eigenvalues --    0.31592   0.31945   0.32731   0.33580   0.34276
 Alpha virt. eigenvalues --    0.35395   0.35850   0.36758   0.38023   0.38940
 Alpha virt. eigenvalues --    0.40138   0.40901   0.41726   0.42242   0.42701
 Alpha virt. eigenvalues --    0.43954   0.44177   0.45429   0.45978   0.46185
 Alpha virt. eigenvalues --    0.47203   0.47664   0.47962   0.48307   0.48972
 Alpha virt. eigenvalues --    0.49428   0.50318   0.50658   0.51311   0.51642
 Alpha virt. eigenvalues --    0.52860   0.53121   0.53353   0.54188   0.54403
 Alpha virt. eigenvalues --    0.54519   0.55872   0.56182   0.56632   0.58092
 Alpha virt. eigenvalues --    0.58580   0.59076   0.60567   0.61124   0.62366
 Alpha virt. eigenvalues --    0.63232   0.65563   0.65935   0.66502   0.67928
 Alpha virt. eigenvalues --    0.68587   0.70060   0.71198   0.72299   0.73043
 Alpha virt. eigenvalues --    0.73480   0.73760   0.74934   0.76128   0.77608
 Alpha virt. eigenvalues --    0.78177   0.79792   0.81863   0.83944   0.84378
 Alpha virt. eigenvalues --    0.89308   0.93160   0.99073   1.00311   1.24719
 Alpha virt. eigenvalues --    1.25774   1.27183   1.27538   1.29333   1.31601
 Alpha virt. eigenvalues --    1.32399   1.33013   1.34038   1.35167   1.35918
 Alpha virt. eigenvalues --    1.36513   1.37104   1.38102   1.39238   1.39878
 Alpha virt. eigenvalues --    1.39982   1.40208   1.41117   1.41625   1.41764
 Alpha virt. eigenvalues --    1.43197   1.44092   1.44723   1.45175   1.46892
 Alpha virt. eigenvalues --    1.48104   1.48929   1.49588   1.50540   1.51085
 Alpha virt. eigenvalues --    1.52310   1.52397   1.54058   1.54439   1.57601
 Alpha virt. eigenvalues --    1.58245   1.60488   1.60700   1.61238   1.62189
 Alpha virt. eigenvalues --    1.62545   1.63370   1.64200   1.65228   1.65597
 Alpha virt. eigenvalues --    1.67034   1.67428   1.67725   1.68115   1.68599
 Alpha virt. eigenvalues --    1.68759   1.69867   1.70582   1.72239   1.72291
 Alpha virt. eigenvalues --    1.73220   1.75124   1.76012   1.76746   1.78790
 Alpha virt. eigenvalues --    1.79775   1.83199   1.84359   1.86015   1.86512
 Alpha virt. eigenvalues --    1.86936   1.87256   1.88514   1.88987   1.90762
 Alpha virt. eigenvalues --    1.91454   1.94398   1.95204   1.98061   1.99594
 Alpha virt. eigenvalues --    2.00777   2.03721   2.04374   2.06252   2.09356
 Alpha virt. eigenvalues --    2.11265   2.12901   2.14335   2.16504   2.19376
 Alpha virt. eigenvalues --    2.20330   2.21159   2.21809   2.22554   2.25925
 Alpha virt. eigenvalues --    2.26868   2.27229   2.28865   2.30410   2.31223
 Alpha virt. eigenvalues --    2.32883   2.34641   2.36111   2.36382   2.37848
 Alpha virt. eigenvalues --    2.39449   2.40109   2.41524   2.43835   2.44722
 Alpha virt. eigenvalues --    2.45824   2.47682   2.50118   2.50376   2.51695
 Alpha virt. eigenvalues --    2.52889   2.53460   2.54903   2.56726   2.58709
 Alpha virt. eigenvalues --    2.58940   2.59930   2.60792   2.61427   2.62552
 Alpha virt. eigenvalues --    2.64382   2.65535   2.66904   2.67645   2.69119
 Alpha virt. eigenvalues --    2.70521   2.71984   2.72714   2.73524   2.74746
 Alpha virt. eigenvalues --    2.75999   2.76527   2.77371   2.78070   2.79401
 Alpha virt. eigenvalues --    2.80690   2.81317   2.82955   2.83504   2.84553
 Alpha virt. eigenvalues --    2.85556   2.85960   2.87624   2.90406   2.91689
 Alpha virt. eigenvalues --    2.97785   3.00076   3.01091   3.03574   3.10117
 Alpha virt. eigenvalues --    3.12070   3.15398   3.16423   3.16776   3.20169
 Alpha virt. eigenvalues --    3.20768   3.22182   3.25155   3.26558   3.27031
 Alpha virt. eigenvalues --    3.27674   3.29477   3.33329   3.34793   3.36516
 Alpha virt. eigenvalues --    3.36973   3.38683   3.39746   3.40160   3.41444
 Alpha virt. eigenvalues --    3.42583   3.44659   3.45413   3.46469   3.47921
 Alpha virt. eigenvalues --    3.48355   3.49262   3.55144   3.58104   3.59618
 Alpha virt. eigenvalues --    3.60363   3.89748   3.99273   4.34501   4.36170
 Alpha virt. eigenvalues --   21.63216  21.79156  22.08269  22.10998  22.11623
 Alpha virt. eigenvalues --   22.14368  22.15198  22.17990  22.21058  22.24939
 Alpha virt. eigenvalues --   22.30584  31.93212  43.62895  43.65304
          Condensed to atoms (all electrons):
               1          2          3          4          5          6
     1  O    7.935435   0.000000  -0.000241   0.000018   0.015903   0.018087
     2  O    0.000000   7.966376   0.000461   0.000036  -0.198197   0.000872
     3  N   -0.000241   0.000461   6.408281   0.375271  -0.114076   0.326097
     4  H    0.000018   0.000036   0.375271   0.412165   0.017139  -0.047933
     5  C    0.015903  -0.198197  -0.114076   0.017139   6.933579  -0.051571
     6  C    0.018087   0.000872   0.326097  -0.047933  -0.051571   5.650113
     7  C   -0.000496  -0.031547   0.372271  -0.041076   0.358242  -0.089414
     8  C   -0.000122   0.711136   0.004955  -0.000610  -0.211816   0.024740
     9  C   -0.029325   0.017687   0.015281  -0.000230  -0.446754  -0.141454
    10  H    0.017038  -0.000020  -0.001268   0.000020  -0.105382   0.024876
    11  H    0.003264   0.000082   0.003853   0.000005  -0.032080  -0.014826
    12  C   -0.215322  -0.002173  -0.092527   0.014649   0.128201  -0.191072
    13  C    0.708561  -0.000028   0.000172   0.000376   0.073700   0.189200
    14  C   -0.000005  -0.010386  -0.035896  -0.008588  -0.070868   0.009045
    15  H   -0.000000   0.004314   0.002554   0.001391   0.018457   0.006559
    16  H   -0.000000   0.001500   0.001626   0.000753  -0.010299  -0.000793
    17  H   -0.000000   0.001359  -0.002911   0.000904  -0.004152  -0.002017
    18  C   -0.000110  -0.105657  -0.000592   0.000020  -0.274295   0.000621
    19  H   -0.000004   0.009368   0.000002  -0.000001   0.024427   0.000029
    20  H    0.000077   0.003355   0.000118   0.000000   0.039755  -0.001042
    21  H    0.000022   0.001170   0.000011  -0.000000   0.005496   0.000246
    22  C   -0.106538   0.000000  -0.000080   0.000118   0.004163  -0.005925
    23  H    0.001147  -0.000000  -0.000041  -0.000017  -0.000095   0.011399
    24  H    0.004668  -0.000000  -0.000080  -0.000051  -0.000559  -0.035150
    25  H    0.007799   0.000000   0.000032  -0.000002  -0.000138  -0.001386
    26  C    0.000908   0.000003  -0.031244  -0.005391   0.000106   0.172895
    27  H   -0.000044  -0.000000  -0.002344   0.000417   0.000395  -0.035940
    28  H   -0.000247  -0.000000   0.003345   0.000899   0.000033  -0.044614
    29  H    0.000026  -0.000000  -0.000179   0.000852  -0.000584  -0.050113
               7          8          9         10         11         12
     1  O   -0.000496  -0.000122  -0.029325   0.017038   0.003264  -0.215322
     2  O   -0.031547   0.711136   0.017687  -0.000020   0.000082  -0.002173
     3  N    0.372271   0.004955   0.015281  -0.001268   0.003853  -0.092527
     4  H   -0.041076  -0.000610  -0.000230   0.000020   0.000005   0.014649
     5  C    0.358242  -0.211816  -0.446754  -0.105382  -0.032080   0.128201
     6  C   -0.089414   0.024740  -0.141454   0.024876  -0.014826  -0.191072
     7  C    5.435915  -0.169984  -0.166321   0.018274  -0.004207  -0.002567
     8  C   -0.169984   5.313957   0.075045  -0.009285  -0.004235  -0.028224
     9  C   -0.166321   0.075045   6.221932   0.522888   0.394266   0.054723
    10  H    0.018274  -0.009285   0.522888   0.500736  -0.033534  -0.104560
    11  H   -0.004207  -0.004235   0.394266  -0.033534   0.551767  -0.021472
    12  C   -0.002567  -0.028224   0.054723  -0.104560  -0.021472   7.243530
    13  C    0.010258  -0.005010  -0.257596  -0.001585   0.001058  -0.377091
    14  C    0.257249  -0.038765   0.010584   0.000495  -0.001308  -0.004588
    15  H   -0.073503   0.005575  -0.000098  -0.000002   0.000070  -0.001225
    16  H   -0.029251  -0.007482  -0.000597  -0.000051   0.000188  -0.000071
    17  H   -0.025229  -0.002312   0.000650   0.000051  -0.000067   0.000952
    18  C    0.002861   0.310089   0.002407   0.008617  -0.008811  -0.004567
    19  H    0.000220  -0.052475   0.000089   0.000519  -0.000057  -0.000190
    20  H    0.000212  -0.060278  -0.009286  -0.004799   0.002124   0.006593
    21  H    0.001371  -0.026919  -0.009582  -0.002622   0.001036  -0.003704
    22  C   -0.000119  -0.000040   0.002209   0.001323   0.001446  -0.255402
    23  H    0.000040   0.000003  -0.001955  -0.000115   0.000140  -0.011484
    24  H    0.000017  -0.000011   0.003392  -0.000085  -0.000116   0.067022
    25  H    0.000007   0.000003   0.000247  -0.000146  -0.000031   0.022607
    26  C    0.001930   0.000389   0.018692   0.000022  -0.000738  -0.074673
    27  H   -0.000748  -0.000008  -0.000125   0.000042  -0.000025  -0.020254
    28  H   -0.000809   0.000002  -0.000829   0.000002  -0.000099  -0.008172
    29  H    0.003819  -0.000005  -0.000533  -0.000010   0.000111   0.024349
              13         14         15         16         17         18
     1  O    0.708561  -0.000005  -0.000000  -0.000000  -0.000000  -0.000110
     2  O   -0.000028  -0.010386   0.004314   0.001500   0.001359  -0.105657
     3  N    0.000172  -0.035896   0.002554   0.001626  -0.002911  -0.000592
     4  H    0.000376  -0.008588   0.001391   0.000753   0.000904   0.000020
     5  C    0.073700  -0.070868   0.018457  -0.010299  -0.004152  -0.274295
     6  C    0.189200   0.009045   0.006559  -0.000793  -0.002017   0.000621
     7  C    0.010258   0.257249  -0.073503  -0.029251  -0.025229   0.002861
     8  C   -0.005010  -0.038765   0.005575  -0.007482  -0.002312   0.310089
     9  C   -0.257596   0.010584  -0.000098  -0.000597   0.000650   0.002407
    10  H   -0.001585   0.000495  -0.000002  -0.000051   0.000051   0.008617
    11  H    0.001058  -0.001308   0.000070   0.000188  -0.000067  -0.008811
    12  C   -0.377091  -0.004588  -0.001225  -0.000071   0.000952  -0.004567
    13  C    5.416047  -0.000058  -0.000015  -0.000001  -0.000022   0.000430
    14  C   -0.000058   5.063876   0.383529   0.426543   0.410299   0.001576
    15  H   -0.000015   0.383529   0.583299  -0.027993  -0.026580   0.000301
    16  H   -0.000001   0.426543  -0.027993   0.506487  -0.026015  -0.000259
    17  H   -0.000022   0.410299  -0.026580  -0.026015   0.509998  -0.000105
    18  C    0.000430   0.001576   0.000301  -0.000259  -0.000105   5.360552
    19  H   -0.000013   0.000065  -0.000006   0.000027  -0.000019   0.390655
    20  H    0.000439   0.000050  -0.000017  -0.000039   0.000006   0.380528
    21  H   -0.000031  -0.000281  -0.000007   0.000028  -0.000007   0.396562
    22  C    0.280241  -0.000025   0.000002  -0.000000   0.000000   0.000023
    23  H   -0.021649  -0.000000   0.000000  -0.000000   0.000000  -0.000002
    24  H   -0.091320  -0.000002   0.000000   0.000000   0.000000   0.000003
    25  H   -0.040491   0.000000   0.000000   0.000000  -0.000000  -0.000001
    26  C   -0.052524   0.001408   0.000060   0.000060  -0.000189   0.000027
    27  H    0.006225  -0.000102   0.000001   0.000004  -0.000013  -0.000001
    28  H   -0.005231   0.000095  -0.000012  -0.000001   0.000001  -0.000000
    29  H   -0.000586  -0.000276   0.000126  -0.000005   0.000004   0.000000
              19         20         21         22         23         24
     1  O   -0.000004   0.000077   0.000022  -0.106538   0.001147   0.004668
     2  O    0.009368   0.003355   0.001170   0.000000  -0.000000  -0.000000
     3  N    0.000002   0.000118   0.000011  -0.000080  -0.000041  -0.000080
     4  H   -0.000001   0.000000  -0.000000   0.000118  -0.000017  -0.000051
     5  C    0.024427   0.039755   0.005496   0.004163  -0.000095  -0.000559
     6  C    0.000029  -0.001042   0.000246  -0.005925   0.011399  -0.035150
     7  C    0.000220   0.000212   0.001371  -0.000119   0.000040   0.000017
     8  C   -0.052475  -0.060278  -0.026919  -0.000040   0.000003  -0.000011
     9  C    0.000089  -0.009286  -0.009582   0.002209  -0.001955   0.003392
    10  H    0.000519  -0.004799  -0.002622   0.001323  -0.000115  -0.000085
    11  H   -0.000057   0.002124   0.001036   0.001446   0.000140  -0.000116
    12  C   -0.000190   0.006593  -0.003704  -0.255402  -0.011484   0.067022
    13  C   -0.000013   0.000439  -0.000031   0.280241  -0.021649  -0.091320
    14  C    0.000065   0.000050  -0.000281  -0.000025  -0.000000  -0.000002
    15  H   -0.000006  -0.000017  -0.000007   0.000002   0.000000   0.000000
    16  H    0.000027  -0.000039   0.000028  -0.000000  -0.000000   0.000000
    17  H   -0.000019   0.000006  -0.000007   0.000000   0.000000   0.000000
    18  C    0.390655   0.380528   0.396562   0.000023  -0.000002   0.000003
    19  H    0.504960  -0.020973  -0.009944  -0.000000   0.000000   0.000000
    20  H   -0.020973   0.537195  -0.026475   0.000014  -0.000000  -0.000000
    21  H   -0.009944  -0.026475   0.503648  -0.000013   0.000000  -0.000000
    22  C   -0.000000   0.000014  -0.000013   5.420806   0.400169   0.399346
    23  H    0.000000  -0.000000   0.000000   0.400169   0.495182  -0.027332
    24  H    0.000000  -0.000000  -0.000000   0.399346  -0.027332   0.540273
    25  H   -0.000000  -0.000000  -0.000000   0.385145  -0.007688  -0.021720
    26  C    0.000000  -0.000014   0.000006  -0.026898  -0.015590   0.015445
    27  H    0.000000  -0.000000   0.000000  -0.010717   0.001122  -0.001348
    28  H   -0.000000  -0.000000  -0.000000   0.008671  -0.000517  -0.010638
    29  H    0.000000   0.000000  -0.000000   0.001983   0.000232   0.000740
              25         26         27         28         29
     1  O    0.007799   0.000908  -0.000044  -0.000247   0.000026
     2  O    0.000000   0.000003  -0.000000  -0.000000  -0.000000
     3  N    0.000032  -0.031244  -0.002344   0.003345  -0.000179
     4  H   -0.000002  -0.005391   0.000417   0.000899   0.000852
     5  C   -0.000138   0.000106   0.000395   0.000033  -0.000584
     6  C   -0.001386   0.172895  -0.035940  -0.044614  -0.050113
     7  C    0.000007   0.001930  -0.000748  -0.000809   0.003819
     8  C    0.000003   0.000389  -0.000008   0.000002  -0.000005
     9  C    0.000247   0.018692  -0.000125  -0.000829  -0.000533
    10  H   -0.000146   0.000022   0.000042   0.000002  -0.000010
    11  H   -0.000031  -0.000738  -0.000025  -0.000099   0.000111
    12  C    0.022607  -0.074673  -0.020254  -0.008172   0.024349
    13  C   -0.040491  -0.052524   0.006225  -0.005231  -0.000586
    14  C    0.000000   0.001408  -0.000102   0.000095  -0.000276
    15  H    0.000000   0.000060   0.000001  -0.000012   0.000126
    16  H    0.000000   0.000060   0.000004  -0.000001  -0.000005
    17  H   -0.000000  -0.000189  -0.000013   0.000001   0.000004
    18  C   -0.000001   0.000027  -0.000001  -0.000000   0.000000
    19  H   -0.000000   0.000000   0.000000  -0.000000   0.000000
    20  H   -0.000000  -0.000014  -0.000000  -0.000000   0.000000
    21  H   -0.000000   0.000006   0.000000  -0.000000  -0.000000
    22  C    0.385145  -0.026898  -0.010717   0.008671   0.001983
    23  H   -0.007688  -0.015590   0.001122  -0.000517   0.000232
    24  H   -0.021720   0.015445  -0.001348  -0.010638   0.000740
    25  H    0.491859   0.001827   0.000096   0.000901  -0.000043
    26  C    0.001827   5.257256   0.430019   0.427036   0.389879
    27  H    0.000096   0.430019   0.480982  -0.024273  -0.019690
    28  H    0.000901   0.427036  -0.024273   0.509568  -0.026911
    29  H   -0.000043   0.389879  -0.019690  -0.026911   0.523936
 Mulliken charges:
               1
     1  O   -0.360498
     2  O   -0.369712
     3  N   -0.232850
     4  H    0.278865
     5  C   -0.098729
     6  C    0.278470
     7  C    0.172583
     8  C    0.171686
     9  C   -0.275406
    10  H    0.168564
    11  H    0.162196
    12  C   -0.143290
    13  C    0.166544
    14  C   -0.393668
    15  H    0.123219
    16  H    0.165642
    17  H    0.165412
    18  C   -0.460872
    19  H    0.153320
    20  H    0.152458
    21  H    0.169989
    22  C   -0.499903
    23  H    0.177052
    24  H    0.157506
    25  H    0.161123
    26  C   -0.510705
    27  H    0.196327
    28  H    0.171800
    29  H    0.152877
 Sum of Mulliken charges =  -0.00000
 Mulliken charges with hydrogens summed into heavy atoms:
               1
     1  O   -0.360498
     2  O   -0.369712
     3  N    0.046014
     5  C   -0.098729
     6  C    0.278470
     7  C    0.172583
     8  C    0.171686
     9  C    0.055354
    12  C   -0.143290
    13  C    0.166544
    14  C    0.060605
    18  C    0.014896
    22  C   -0.004221
    26  C    0.010299
 Electronic spatial extent (au):  <R**2>=           3182.9056
 Charge=             -0.0000 electrons
 Dipole moment (field-independent basis, Debye):
    X=              3.8149    Y=              6.9332    Z=             -0.3013  Tot=              7.9192
 Quadrupole moment (field-independent basis, Debye-Ang):
   XX=            -97.0397   YY=            -78.8901   ZZ=            -85.0018
   XY=             12.1635   XZ=              5.5201   YZ=             -1.4710
 Traceless Quadrupole moment (field-independent basis, Debye-Ang):
   XX=            -10.0625   YY=              8.0871   ZZ=              1.9754
   XY=             12.1635   XZ=              5.5201   YZ=             -1.4710
 Octapole moment (field-independent basis, Debye-Ang**2):
  XXX=            104.0236  YYY=             60.6398  ZZZ=              2.0689  XYY=            -33.3966
  XXY=             28.6170  XXZ=            -10.1798  XZZ=              2.3549  YZZ=             -1.5399
  YYZ=              3.2204  XYZ=             -5.1299
 Hexadecapole moment (field-independent basis, Debye-Ang**3):
 XXXX=          -3007.6156 YYYY=          -1277.2750 ZZZZ=           -159.7916 XXXY=             34.3066
 XXXZ=             63.5594 YYYX=             83.9428 YYYZ=            -21.5317 ZZZX=             -2.5926
 ZZZY=              5.9377 XXYY=           -689.8091 XXZZ=           -486.2536 YYZZ=           -243.0645
 XXYZ=             -6.7633 YYXZ=              6.3863 ZZXY=             -1.6293
 N-N= 9.007597627450D+02 E-N=-3.277609749633D+03  KE= 6.307168802717D+02
 Leave Link  601 at Fri Jan 23 16:31:47 2026, MaxMem=  2147483648 cpu:               0.7 elap:               0.1
 (Enter /data/home/wyx/g16/l9999.exe)
 Electronic transition elements 
                 1             2             3             4             5 
      1  -0.633201D+03 -0.633179D+03 -0.633173D+03 -0.633141D+03 -0.633124D+03
      2  -0.157498D+01 -0.163064D+00 -0.468702D-01  0.388083D+00  0.428060D+00
      3  -0.354361D+00 -0.622532D-01  0.138424D+00 -0.172554D+01 -0.139659D+01
      4  -0.121653D+00  0.295188D-01 -0.471751D-01  0.230601D+00  0.114461D+00
      5   0.191497D+00  0.231915D-01  0.739392D-02 -0.669101D-01 -0.856676D-01
      6   0.468608D-01  0.932414D-02 -0.202793D-01  0.311416D+00  0.281450D+00
      7   0.135708D-01 -0.179959D-02  0.378107D-02 -0.372220D-01 -0.239633D-01
      8   0.745015D-01  0.849027D+00  0.500597D+00  0.937481D-01  0.196968D+00
      9  -0.600162D-01  0.124935D+00 -0.895809D+00 -0.785546D-01 -0.233191D-01
     10  -0.142958D+01 -0.288874D+00 -0.996680D-01  0.100746D+00  0.313013D+00
     11   0.189143D+00  0.425612D-01  0.263234D-01 -0.116661D+01 -0.584219D+00
     12  -0.278323D+00 -0.419341D-01 -0.373894D-01  0.187617D+00  0.316306D+00
     13   0.168832D-01 -0.321992D-02  0.418796D-01  0.644883D-02  0.552565D-01
     14  -0.513974D+00 -0.596114D-01 -0.331909D-01 -0.427294D+00 -0.848273D-01
     15   0.913968D-01 -0.287135D-02  0.599954D-01 -0.155886D-01 -0.174215D-01
     16  -0.192599D-01  0.835789D-01  0.278325D-01 -0.801959D-01  0.460493D-01
                 6 
      1  -0.633107D+03
      2  -0.589955D-01
      3   0.235297D+00
      4   0.609411D-01
      5   0.136159D-01
      6  -0.494849D-01
      7  -0.329178D-01
      8  -0.456866D-01
      9  -0.273359D-01
     10   0.859310D-02
     11  -0.255037D+00
     12  -0.210528D+00
     13   0.188259D+00
     14  -0.284235D-02
     15  -0.265935D-01
     16   0.487504D-01
 1\1\GINC-CN012\SP\RCAM-B3LYP TD-FC\TZVP\C11H15N1O2\WYX\23-Jan-2026\0\\
 #p CAM-B3LYP TZVP em=gd3bj td(Eqsolv,nstates=6,root=1) scrf=(Solvent=T
 etraHydroFuran) Geom=Check Guess=Read\\Title Card Required\\0,1\O,0,2.
 834769,-1.563886,0.161385\O,0,-3.418074,-1.618637,0.094504\N,0,-0.6323
 21,1.509615,-0.381216\H,0,-0.940976,2.46667,-0.435865\C,0,-1.236512,-0
 .757182,-0.225422\C,0,0.703177,1.296323,-0.113137\C,0,-1.608964,0.5438
 17,-0.297362\C,0,-2.224821,-1.826886,-0.092604\C,0,0.222077,-1.114544,
 -0.368954\H,0,0.47334,-1.962353,0.265024\H,0,0.434632,-1.459386,-1.389
 975\C,0,1.151779,0.022178,-0.018677\C,0,2.512064,-0.393041,0.330576\C,
 0,-3.000627,1.08645,-0.292964\H,0,-3.003224,2.136355,-0.584761\H,0,-3.
 643933,0.525716,-0.963633\H,0,-3.44185,1.001786,0.699085\C,0,-1.731415
 ,-3.248389,-0.190817\H,0,-2.583883,-3.918704,-0.249238\H,0,-1.087711,-
 3.394883,-1.057463\H,0,-1.14225,-3.505898,0.690741\C,0,3.528726,0.5449
 07,0.935674\H,0,4.044357,1.101933,0.151503\H,0,3.091794,1.258574,1.629
 308\H,0,4.268339,-0.060731,1.453982\C,0,1.468319,2.575425,0.034916\H,0
 ,1.502689,2.892012,1.078205\H,0,2.483846,2.496586,-0.332097\H,0,0.9766
 55,3.366175,-0.530715\\Version=ES64L-G16RevA.03\State=1-A\HF=-633.3288
 909\RMSD=2.825e-09\PG=C01 [X(C11H15N1O2)]\\@


 BE NOT THE FIRST BY WHOM THE NEW ARE TRIED,
 NOR YET THE THE LAST TO LAY THE OLD ASIDE.

                          -- ALEXANDER POPE
 Job cpu time:       0 days  0 hours 35 minutes 40.1 seconds.
 Elapsed time:       0 days  0 hours  2 minutes 14.7 seconds.
 File lengths (MBytes):  RWF=    734 Int=      0 D2E=      0 Chk=     67 Scr=      1
 Normal termination of Gaussian 16 at Fri Jan 23 16:31:50 2026.
