 Entering Gaussian System, Link 0=g16
 Input=DDL-LR-Eq-6.gjf
 Output=DDL-LR-Eq-6.log
 Initial command:
 /data/home/wyx/g16/l1.exe "/scr/tmp/wyx/13106/Gau-1964285.inp" -scrdir="/scr/tmp/wyx/13106/"
 Entering Link 1 = /data/home/wyx/g16/l1.exe PID=   1964286.
  
 Copyright (c) 1988,1990,1992,1993,1995,1998,2003,2009,2016,
            Gaussian, Inc.  All Rights Reserved.
  
 This is part of the Gaussian(R) 16 program.  It is based on
 the Gaussian(R) 09 system (copyright 2009, Gaussian, Inc.),
 the Gaussian(R) 03 system (copyright 2003, Gaussian, Inc.),
 the Gaussian(R) 98 system (copyright 1998, Gaussian, Inc.),
 the Gaussian(R) 94 system (copyright 1995, Gaussian, Inc.),
 the Gaussian 92(TM) system (copyright 1992, Gaussian, Inc.),
 the Gaussian 90(TM) system (copyright 1990, Gaussian, Inc.),
 the Gaussian 88(TM) system (copyright 1988, Gaussian, Inc.),
 the Gaussian 86(TM) system (copyright 1986, Carnegie Mellon
 University), and the Gaussian 82(TM) system (copyright 1983,
 Carnegie Mellon University). Gaussian is a federally registered
 trademark of Gaussian, Inc.
  
 This software contains proprietary and confidential information,
 including trade secrets, belonging to Gaussian, Inc.
  
 This software is provided under written license and may be
 used, copied, transmitted, or stored only in accord with that
 written license.
  
 The following legend is applicable only to US Government
 contracts under FAR:
  
                    RESTRICTED RIGHTS LEGEND
  
 Use, reproduction and disclosure by the US Government is
 subject to restrictions as set forth in subparagraphs (a)
 and (c) of the Commercial Computer Software - Restricted
 Rights clause in FAR 52.227-19.
  
 Gaussian, Inc.
 340 Quinnipiac St., Bldg. 40, Wallingford CT 06492
  
  
 ---------------------------------------------------------------
 Warning -- This program may not be used in any manner that
 competes with the business of Gaussian, Inc. or will provide
 assistance to any competitor of Gaussian, Inc.  The licensee
 of this program is prohibited from giving any competitor of
 Gaussian, Inc. access to this program.  By using this program,
 the user acknowledges that Gaussian, Inc. is engaged in the
 business of creating and licensing software in the field of
 computational chemistry and represents and warrants to the
 licensee that it is not a competitor of Gaussian, Inc. and that
 it will not use this program in any manner prohibited above.
 ---------------------------------------------------------------
  

 Cite this work as:
 Gaussian 16, Revision A.03,
 M. J. Frisch, G. W. Trucks, H. B. Schlegel, G. E. Scuseria, 
 M. A. Robb, J. R. Cheeseman, G. Scalmani, V. Barone, 
 G. A. Petersson, H. Nakatsuji, X. Li, M. Caricato, A. V. Marenich, 
 J. Bloino, B. G. Janesko, R. Gomperts, B. Mennucci, H. P. Hratchian, 
 J. V. Ortiz, A. F. Izmaylov, J. L. Sonnenberg, D. Williams-Young, 
 F. Ding, F. Lipparini, F. Egidi, J. Goings, B. Peng, A. Petrone, 
 T. Henderson, D. Ranasinghe, V. G. Zakrzewski, J. Gao, N. Rega, 
 G. Zheng, W. Liang, M. Hada, M. Ehara, K. Toyota, R. Fukuda, 
 J. Hasegawa, M. Ishida, T. Nakajima, Y. Honda, O. Kitao, H. Nakai, 
 T. Vreven, K. Throssell, J. A. Montgomery, Jr., J. E. Peralta, 
 F. Ogliaro, M. J. Bearpark, J. J. Heyd, E. N. Brothers, K. N. Kudin, 
 V. N. Staroverov, T. A. Keith, R. Kobayashi, J. Normand, 
 K. Raghavachari, A. P. Rendell, J. C. Burant, S. S. Iyengar, 
 J. Tomasi, M. Cossi, J. M. Millam, M. Klene, C. Adamo, R. Cammi, 
 J. W. Ochterski, R. L. Martin, K. Morokuma, O. Farkas, 
 J. B. Foresman, and D. J. Fox, Gaussian, Inc., Wallingford CT, 2016.
 
 ******************************************
 Gaussian 16:  ES64L-G16RevA.03 25-Dec-2016
                23-Jan-2026 
 ******************************************
 %nprocshared=16
 Will use up to   16 processors via shared memory.
 %mem=16GB
 %oldchk=DDL-LR-6.chk
 %chk=DDL-LR-Eq-6.chk
 Copying data from "DDL-LR-6.chk" to current chk file "DDL-LR-Eq-6.chk"
 IOpt=  2 FromEx=T IUOpen= 4 IOptOp= 5 NList=   0 IFRang= 0 IUIn= 4 IUOut= 2.
 ----------------------------------------------------------------------
 #p CAM-B3LYP TZVP em=gd3bj td(Eqsolv,nstates=6,root=1) scrf=(Solvent=T
 etraHydroFuran) Geom=Check Guess=Read
 ----------------------------------------------------------------------
 1/29=2,38=1,172=1/1;
 2/12=2,40=1/2;
 3/5=19,7=101,11=9,14=-4,25=1,30=1,70=2201,72=20,74=-40,116=-2,124=41/1,2,3,8;
 4/5=1/1;
 5/5=2,38=6,53=20/2;
 8/6=1,10=1,107=1,108=6/1;
 9/8=1,41=6,42=1,70=2,73=2/14;
 6/7=2,8=2,9=2,10=2/1;
 99/5=1,9=1/99;
 Leave Link    1 at Fri Jan 23 15:39:34 2026, MaxMem=  2147483648 cpu:               0.8 elap:               0.1
 (Enter /data/home/wyx/g16/l101.exe)
 -------------------
 Title Card Required
 -------------------
 Structure from the checkpoint file:  "DDL-LR-Eq-6.chk"
 Charge =  0 Multiplicity = 1
 Z-Matrix found in chk file.
 O,0,2.838809,-1.571128,0.068736
 O,0,-3.427353,-1.641177,-0.082262
 N,0,-0.656723,1.516031,-0.234645
 H,0,-0.967862,2.475653,-0.285417
 C,0,-1.245636,-0.761057,-0.207138
 C,0,0.684977,1.325013,-0.046062
 C,0,-1.630886,0.569721,-0.253025
 C,0,-2.215241,-1.841272,-0.160243
 C,0,0.201203,-1.09032,-0.234406
 H,0,0.423308,-1.907329,0.457948
 H,0,0.464529,-1.536889,-1.208585
 C,0,1.148518,0.025151,0.026423
 C,0,2.516735,-0.399667,0.285161
 C,0,-3.018943,1.100641,-0.335118
 H,0,-3.018592,2.178649,-0.487134
 H,0,-3.570426,0.636659,-1.14645
 H,0,-3.576381,0.883996,0.571943
 C,0,-1.715791,-3.260995,-0.186936
 H,0,-2.536482,-3.926766,-0.429515
 H,0,-0.91224,-3.417795,-0.900131
 H,0,-1.332299,-3.547828,0.791364
 C,0,3.557068,0.531983,0.857866
 H,0,4.065357,1.075725,0.059011
 H,0,3.145927,1.257569,1.55484
 H,0,4.299723,-0.077657,1.367788
 C,0,1.468398,2.593322,0.027373
 H,0,1.662978,2.895519,1.056446
 H,0,2.423192,2.50674,-0.478761
 H,0,0.924131,3.407506,-0.449071
 Recover connectivity data from disk.
 ITRead=  0  0  0  0  0  0  0  0  0  0  0  0  0  0  0  0  0  0  0  0
 ITRead=  0  0  0  0  0  0  0  0  0
 MicOpt= -1 -1 -1 -1 -1 -1 -1 -1 -1 -1 -1 -1 -1 -1 -1 -1 -1 -1 -1 -1
 MicOpt= -1 -1 -1 -1 -1 -1 -1 -1 -1
 NAtoms=     29 NQM=       29 NQMF=       0 NMMI=      0 NMMIF=      0
                NMic=       0 NMicF=      0.
                    Isotopes and Nuclear Properties:
 (Nuclear quadrupole moments (NQMom) in fm**2, nuclear magnetic moments (NMagM)
  in nuclear magnetons)

  Atom         1           2           3           4           5           6           7           8           9          10
 IAtWgt=          16          16          14           1          12          12          12          12          12           1
 AtmWgt=  15.9949146  15.9949146  14.0030740   1.0078250  12.0000000  12.0000000  12.0000000  12.0000000  12.0000000   1.0078250
 NucSpn=           0           0           2           1           0           0           0           0           0           1
 AtZEff=   5.6000000   5.6000000   4.5500000   1.0000000   3.6000000   3.6000000   3.6000000   3.6000000   3.6000000   1.0000000
 NQMom=    0.0000000   0.0000000   2.0440000   0.0000000   0.0000000   0.0000000   0.0000000   0.0000000   0.0000000   0.0000000
 NMagM=    0.0000000   0.0000000   0.4037610   2.7928460   0.0000000   0.0000000   0.0000000   0.0000000   0.0000000   2.7928460
 AtZNuc=   8.0000000   8.0000000   7.0000000   1.0000000   6.0000000   6.0000000   6.0000000   6.0000000   6.0000000   1.0000000

  Atom        11          12          13          14          15          16          17          18          19          20
 IAtWgt=           1          12          12          12           1           1           1          12           1           1
 AtmWgt=   1.0078250  12.0000000  12.0000000  12.0000000   1.0078250   1.0078250   1.0078250  12.0000000   1.0078250   1.0078250
 NucSpn=           1           0           0           0           1           1           1           0           1           1
 AtZEff=   1.0000000   3.6000000   3.6000000   3.6000000   1.0000000   1.0000000   1.0000000   3.6000000   1.0000000   1.0000000
 NQMom=    0.0000000   0.0000000   0.0000000   0.0000000   0.0000000   0.0000000   0.0000000   0.0000000   0.0000000   0.0000000
 NMagM=    2.7928460   0.0000000   0.0000000   0.0000000   2.7928460   2.7928460   2.7928460   0.0000000   2.7928460   2.7928460
 AtZNuc=   1.0000000   6.0000000   6.0000000   6.0000000   1.0000000   1.0000000   1.0000000   6.0000000   1.0000000   1.0000000

  Atom        21          22          23          24          25          26          27          28          29
 IAtWgt=           1          12           1           1           1          12           1           1           1
 AtmWgt=   1.0078250  12.0000000   1.0078250   1.0078250   1.0078250  12.0000000   1.0078250   1.0078250   1.0078250
 NucSpn=           1           0           1           1           1           0           1           1           1
 AtZEff=   1.0000000   3.6000000   1.0000000   1.0000000   1.0000000   3.6000000   1.0000000   1.0000000   1.0000000
 NQMom=    0.0000000   0.0000000   0.0000000   0.0000000   0.0000000   0.0000000   0.0000000   0.0000000   0.0000000
 NMagM=    2.7928460   0.0000000   2.7928460   2.7928460   2.7928460   0.0000000   2.7928460   2.7928460   2.7928460
 AtZNuc=   1.0000000   6.0000000   1.0000000   1.0000000   1.0000000   6.0000000   1.0000000   1.0000000   1.0000000
 Leave Link  101 at Fri Jan 23 15:39:36 2026, MaxMem=  2147483648 cpu:               0.9 elap:               0.1
 (Enter /data/home/wyx/g16/l202.exe)
                          Input orientation:                          
 ---------------------------------------------------------------------
 Center     Atomic      Atomic             Coordinates (Angstroms)
 Number     Number       Type             X           Y           Z
 ---------------------------------------------------------------------
      1          8           0        2.838809   -1.571128    0.068736
      2          8           0       -3.427353   -1.641177   -0.082262
      3          7           0       -0.656723    1.516031   -0.234645
      4          1           0       -0.967862    2.475653   -0.285417
      5          6           0       -1.245636   -0.761057   -0.207138
      6          6           0        0.684977    1.325013   -0.046062
      7          6           0       -1.630886    0.569721   -0.253025
      8          6           0       -2.215241   -1.841272   -0.160243
      9          6           0        0.201203   -1.090320   -0.234406
     10          1           0        0.423308   -1.907329    0.457948
     11          1           0        0.464529   -1.536889   -1.208585
     12          6           0        1.148518    0.025151    0.026423
     13          6           0        2.516735   -0.399667    0.285161
     14          6           0       -3.018943    1.100641   -0.335118
     15          1           0       -3.018592    2.178649   -0.487134
     16          1           0       -3.570426    0.636659   -1.146450
     17          1           0       -3.576381    0.883996    0.571943
     18          6           0       -1.715791   -3.260995   -0.186936
     19          1           0       -2.536482   -3.926766   -0.429515
     20          1           0       -0.912240   -3.417795   -0.900131
     21          1           0       -1.332299   -3.547828    0.791364
     22          6           0        3.557068    0.531983    0.857866
     23          1           0        4.065357    1.075725    0.059011
     24          1           0        3.145927    1.257569    1.554840
     25          1           0        4.299723   -0.077657    1.367788
     26          6           0        1.468398    2.593322    0.027373
     27          1           0        1.662978    2.895519    1.056446
     28          1           0        2.423192    2.506740   -0.478761
     29          1           0        0.924131    3.407506   -0.449071
 ---------------------------------------------------------------------
                    Distance matrix (angstroms):
                    1          2          3          4          5
     1  O    0.000000
     2  O    6.268372   0.000000
     3  N    4.673471   4.203281   0.000000
     4  H    5.567100   4.799860   1.010079   0.000000
     5  C    4.173130   2.355864   2.352170   3.249550   0.000000
     6  C    3.611067   5.070587   1.368287   2.028088   2.846911
     7  C    4.966381   2.853861   1.358247   2.018224   1.386179
     8  C    5.066442   1.230989   3.702161   4.495271   1.452308
     9  C    2.698154   3.673283   2.743921   3.753063   1.484082
    10  H    2.469648   3.897468   3.655892   4.658162   2.131115
    11  H    2.696280   4.052928   3.395009   4.359412   2.128256
    12  C    2.325292   4.871043   2.355796   3.252886   2.530740
    13  C    1.234055   6.083464   3.743118   4.553618   3.811613
    14  C    6.450946   2.783577   2.400568   2.469830   2.574280
    15  H    6.977031   3.862911   2.466017   2.081921   3.444364
    16  H    6.886893   2.518234   3.177160   3.301002   2.870639
    17  H    6.887344   2.612794   3.094262   3.173769   2.957286
    18  C    4.864710   2.358858   4.893248   5.786037   2.543844
    19  H    5.889910   2.477530   5.761554   6.593353   3.425996
    20  H    4.291765   3.186075   4.985058   5.925681   2.765800
    21  H    4.672010   2.964421   5.210736   6.129812   2.961521
    22  C    2.358325   7.374863   4.462955   5.055684   5.086468
    23  H    2.917250   7.971337   4.751646   5.235621   5.625944
    24  H    3.210039   7.368232   4.210606   4.668355   5.144438
    25  H    2.460134   8.015918   5.447384   6.082757   5.805035
    26  C    4.384334   6.473900   2.396946   2.459074   4.321208
    27  H    4.723249   6.913012   2.991808   2.982986   4.840168
    28  H    4.135396   7.182709   3.244530   3.396704   4.920628
    29  H    5.359190   6.675265   2.474420   2.115365   4.705671
                    6          7          8          9         10
     6  C    0.000000
     7  C    2.444692   0.000000
     8  C    4.295307   2.482532   0.000000
     9  C    2.470495   2.472374   2.531527   0.000000
    10  H    3.281849   3.295599   2.710805   1.093704   0.000000
    11  H    3.096860   3.121164   2.893586   1.103535   1.707705
    12  C    1.381943   2.846003   3.851396   1.486510   2.108702
    13  C    2.537630   4.293264   4.966710   2.471566   2.585602
    14  C    3.721951   1.488394   3.054729   3.896125   4.639604
    15  H    3.826181   2.137565   4.112420   4.595336   5.425410
    16  H    4.448948   2.136470   2.991533   4.247289   4.999588
    17  H    4.328464   2.136420   3.133031   4.338002   4.878730
    18  C    5.178320   3.832227   1.505250   2.896368   2.612285
    19  H    6.173007   4.590169   2.127202   3.946950   3.691351
    20  H    5.076885   4.103106   2.175010   2.664598   2.430962
    21  H    5.339969   4.258417   2.144173   3.072975   2.425811
    22  C    3.113662   5.305692   6.323641   3.884167   3.991319
    23  H    3.391188   5.727180   6.928409   4.439542   4.724646
    24  H    2.936616   5.153586   6.425453   4.169578   4.316527
    25  H    4.127087   6.182092   6.920258   4.515571   4.382020
    26  C    1.492565   3.712027   5.768017   3.904296   4.640417
    27  H    2.153717   4.239527   6.241643   4.437341   4.996232
    28  H    2.145949   4.498727   6.365668   4.235066   4.935683
    29  H    2.134570   3.823555   6.122806   4.560608   5.414885
                   11         12         13         14         15
    11  H    0.000000
    12  C    2.105482   0.000000
    13  C    2.781385   1.455827   0.000000
    14  C    4.455792   4.319158   5.768830   0.000000
    15  H    5.143719   4.718697   6.154998   1.088674   0.000000
    16  H    4.583561   4.900817   6.338534   1.085206   1.765489
    17  H    5.035863   4.833206   6.233466   1.086477   1.763207
    18  C    2.961436   4.364464   5.130726   4.554562   5.601530
    19  H    3.914656   5.422615   6.203724   5.051386   6.124691
    20  H    2.351264   4.118143   4.719310   5.017340   5.993953
    21  H    3.357419   4.416533   4.998222   5.071685   6.104972
    22  C    4.256084   2.597939   1.509389   6.707496   6.910849
    23  H    4.625853   3.100438   2.150850   7.095299   7.190066
    24  H    4.757668   2.800813   2.180458   6.449976   6.558913
    25  H    4.845180   3.426357   2.110644   7.605994   7.879682
    26  C    4.426510   2.588016   3.181737   4.742966   4.535389
    27  H    5.119852   3.092673   3.490277   5.203693   4.981329
    28  H    4.551916   2.835188   3.006581   5.622685   5.451672
    29  H    5.023459   3.422977   4.191664   4.569731   4.129964
                   16         17         18         19         20
    16  H    0.000000
    17  H    1.736112   0.000000
    18  C    4.421769   4.606370   0.000000
    19  H    4.733697   5.022722   1.084264   0.000000
    20  H    4.854402   5.269730   1.085784   1.765982   0.000000
    21  H    5.125843   4.972435   1.089225   1.756188   1.747717
    22  C    7.404688   7.147850   6.578855   7.659579   6.218200
    23  H    7.742809   7.661333   7.231134   8.297461   6.774079
    24  H    7.265803   6.804048   6.862034   7.943851   6.659927
    25  H    8.292821   7.974407   6.981204   8.048580   6.592764
    26  C    5.531378   5.354264   6.667684   7.665465   6.531556
    27  H    6.110951   5.633103   7.131952   8.147829   7.093509
    28  H    6.313990   6.303345   7.105147   8.123472   6.811958
    29  H    5.325878   5.259770   7.176824   8.109733   7.082404
                   21         22         23         24         25
    21  H    0.000000
    22  C    6.368296   0.000000
    23  H    7.144807   1.091871   0.000000
    24  H    6.612809   1.086869   1.765198   0.000000
    25  H    6.640333   1.087758   1.760146   1.774560   0.000000
    26  C    6.792739   3.049816   3.008039   2.632773   4.116703
    27  H    7.110462   3.035344   3.174579   2.265042   3.986118
    28  H    7.237038   2.640438   2.243593   2.493653   3.689203
    29  H    7.416659   4.112064   3.944953   3.684327   5.180923
                   26         27         28         29
    26  C    0.000000
    27  H    1.090035   0.000000
    28  H    1.084112   1.756683   0.000000
    29  H    1.089092   1.753456   1.749127   0.000000
 Stoichiometry    C11H15NO2
 Framework group  C1[X(C11H15NO2)]
 Deg. of freedom    81
 Full point group                 C1      NOp   1
 RotChk:  IX=0 Diff= 4.91D-16
 Largest Abelian subgroup         C1      NOp   1
 Largest concise Abelian subgroup C1      NOp   1
                         Standard orientation:                         
 ---------------------------------------------------------------------
 Center     Atomic      Atomic             Coordinates (Angstroms)
 Number     Number       Type             X           Y           Z
 ---------------------------------------------------------------------
      1          8           0        2.285597   -2.283164   -0.251823
      2          8           0       -3.619906   -0.255440    0.301221
      3          7           0        0.020297    1.802599   -0.124185
      4          1           0        0.046552    2.812328   -0.128363
      5          6           0       -1.294051   -0.146954   -0.057556
      6          6           0        1.231404    1.166796   -0.089780
      7          6           0       -1.211862    1.236722   -0.044177
      8          6           0       -2.560327   -0.843630    0.085218
      9          6           0       -0.052987   -0.937407   -0.251062
     10          1           0       -0.049288   -1.814519    0.402275
     11          1           0       -0.055861   -1.398047   -1.253854
     12          6           0        1.235621   -0.215133   -0.085162
     13          6           0        2.400072   -1.083354    0.013213
     14          6           0       -2.341214    2.202840    0.036442
     15          1           0       -1.993831    3.225283   -0.101926
     16          1           0       -3.096206    1.989143   -0.713220
     17          1           0       -2.843573    2.140145    0.997763
     18          6           0       -2.572903   -2.345544   -0.014154
     19          1           0       -3.589867   -2.687395   -0.170842
     20          1           0       -1.945970   -2.725923   -0.814901
     21          1           0       -2.210684   -2.791093    0.911423
     22          6           0        3.745712   -0.580376    0.476377
     23          1           0        4.323082   -0.198580   -0.368051
     24          1           0        3.675798    0.205756    1.223633
     25          1           0        4.287923   -1.426623    0.892420
     26          6           0        2.398882    2.096712   -0.089861
     27          1           0        2.787500    2.266260    0.914333
     28          1           0        3.212118    1.721991   -0.701033
     29          1           0        2.114608    3.067887   -0.492514
 ---------------------------------------------------------------------
 Rotational constants (GHZ):           1.0767913           0.4902463           0.3439504
 Leave Link  202 at Fri Jan 23 15:39:36 2026, MaxMem=  2147483648 cpu:               0.0 elap:               0.0
 (Enter /data/home/wyx/g16/l301.exe)
 Standard basis: TZVP (5D, 7F)
 Ernie: Thresh=  0.10000D-02 Tol=  0.10000D-05 Strict=F.
 There are   370 symmetry adapted cartesian basis functions of A   symmetry.
 There are   356 symmetry adapted basis functions of A   symmetry.
   356 basis functions,   610 primitive gaussians,   370 cartesian basis functions
    52 alpha electrons       52 beta electrons
       nuclear repulsion energy       899.9703860147 Hartrees.
 IExCor=20419 DFT=T Ex+Corr=CAM-B3LYP ExCW=0 ScaHFX=  1.000000
 ScaDFX=  1.000000  1.000000  1.000000  0.810000 ScalE2=  1.000000  1.000000
 IRadAn=      5 IRanWt=     -1 IRanGd=            0 ICorTp=0 IEmpDi=141
 HFx  wShort=  0.000000 wLong=  0.330000 cFull=  0.190000 cShort=  0.000000 cLong=  0.460000
 DFx  wShort=  0.000000 wLong=  0.330000 cFull=  0.190000 cShort=  0.000000 cLong=  0.460000
 NAtoms=   29 NActive=   29 NUniq=   29 SFac= 1.00D+00 NAtFMM=   60 NAOKFM=F Big=F
 Integral buffers will be    131072 words long.
 Raffenetti 1 integral format.
 Two-electron integral symmetry is turned on.
 R6Disp:  Grimme-D3(BJ) Dispersion energy=       -0.0261533002 Hartrees.
 Nuclear repulsion after empirical dispersion term =      899.9442327145 Hartrees.
 ------------------------------------------------------------------------------
 Polarizable Continuum Model (PCM)
 =================================
 Model                : PCM.
 Atomic radii         : UFF (Universal Force Field).
 Polarization charges : Total charges.
 Charge compensation  : None.
 Solution method      : On-the-fly selection.
 Cavity type          : Scaled VdW (van der Waals Surface) (Alpha=1.100).
 Cavity algorithm     : GePol (No added spheres)
                        Default sphere list used, NSphG=   29.
                        Lebedev-Laikov grids with approx.  5.0 points / Ang**2.
                        Smoothing algorithm: York/Karplus (Gamma=1.0000).
                        Polarization charges: spherical gaussians, with
                                              point-specific exponents (IZeta= 3).
                        Self-potential: point-specific (ISelfS= 7).
                        Self-field    : sphere-specific E.n sum rule (ISelfD= 2).
 Solvent              : TetraHydroFuran, Eps=   7.425700 Eps(inf)=   1.974025
 ------------------------------------------------------------------------------
 GePol: Number of generator spheres                  =      29
 GePol: Total number of spheres                      =      29
 GePol: Number of exposed spheres                    =      29 (100.00%)
 GePol: Number of points                             =    2122
 GePol: Average weight of points                     =       0.13
 GePol: Minimum weight of points                     =   0.24D-09
 GePol: Maximum weight of points                     =    0.20577
 GePol: Number of points with low weight             =     143
 GePol: Fraction of low-weight points (<1% of avg)   =       6.74%
 GePol: Cavity surface area                          =    268.731 Ang**2
 GePol: Cavity volume                                =    286.787 Ang**3
 Leave Link  301 at Fri Jan 23 15:39:36 2026, MaxMem=  2147483648 cpu:               0.6 elap:               0.0
 (Enter /data/home/wyx/g16/l302.exe)
 NPDir=0 NMtPBC=     1 NCelOv=     1 NCel=       1 NClECP=     1 NCelD=      1
         NCelK=      1 NCelE2=     1 NClLst=     1 CellRange=     0.0.
 One-electron integrals computed using PRISM.
 One-electron integral symmetry used in STVInt
 NBasis=   356 RedAO= T EigKep=  4.40D-05  NBF=   356
 NBsUse=   356 1.00D-06 EigRej= -1.00D+00 NBFU=   356
 Precomputing XC quadrature grid using
 IXCGrd= 4 IRadAn=           5 IRanWt=          -1 IRanGd=           0 AccXCQ= 0.00D+00.
 Generated NRdTot=       0 NPtTot=           0 NUsed=           0 NTot=          32
 NSgBfM=   366   366   366   366   366 MxSgAt=    29 MxSgA2=    29.
 Leave Link  302 at Fri Jan 23 15:39:37 2026, MaxMem=  2147483648 cpu:               3.1 elap:               0.2
 (Enter /data/home/wyx/g16/l303.exe)
 DipDrv:  MaxL=1.
 Leave Link  303 at Fri Jan 23 15:39:37 2026, MaxMem=  2147483648 cpu:               0.6 elap:               0.0
 (Enter /data/home/wyx/g16/l308.exe)
 Leave Link  308 at Fri Jan 23 15:39:37 2026, MaxMem=  2147483648 cpu:               0.7 elap:               0.1
 (Enter /data/home/wyx/g16/l401.exe)
 Initial guess from the checkpoint file:  "DDL-LR-Eq-6.chk"
 B after Tr=    -0.000000    0.000000   -0.000000
         Rot=    1.000000    0.000000   -0.000000    0.000000 Ang=   0.00 deg.
 Guess basis will be translated and rotated to current coordinates.
 JPrj=2 DoOrth=T DoCkMO=T.
 Leave Link  401 at Fri Jan 23 15:39:38 2026, MaxMem=  2147483648 cpu:               2.3 elap:               0.2
 (Enter /data/home/wyx/g16/l502.exe)
 Integral symmetry usage will be decided dynamically.
 Closed shell SCF:
 Using DIIS extrapolation, IDIIS=  1040.
 NGot=  2147483648 LenX=  2147200095 LenY=  2147062754
 Requested convergence on RMS density matrix=1.00D-08 within 128 cycles.
 Requested convergence on MAX density matrix=1.00D-06.
 Requested convergence on             energy=1.00D-06.
 No special actions if energy rises.
 Fock matrices will be formed incrementally for  20 cycles.

 Cycle   1  Pass 1  IDiag  1:
 FoFJK:  IHMeth= 1 ICntrl=       0 DoSepK=T KAlg= 0 I1Cent=           0 FoldK=F
 IRaf=         1 NMat=       1 IRICut=       1 DoRegI=T DoRafI=F ISym2E= 0 IDoP0=0 IntGTp=1.
 FoFCou: FMM=F IPFlag=           0 FMFlag=      100000 FMFlg1=           0
         NFxFlg=           0 DoJE=T BraDBF=F KetDBF=F FulRan=T
         wScrn=  0.000000 ICntrl=       500 IOpCl=  0 I1Cent=           0 NGrid=           0
         NMat0=    1 NMatS0=      1 NMatT0=    0 NMatD0=    1 NMtDS0=    0 NMtDT0=    0
 Symmetry not used in FoFCou.
 Inv3:  Mode=1 IEnd=    13508652.
 Iteration    1 A*A^-1 deviation from unit magnitude is 2.89D-15 for    383.
 Iteration    1 A*A^-1 deviation from orthogonality  is 1.75D-15 for   1359    924.
 Iteration    1 A^-1*A deviation from unit magnitude is 2.89D-15 for    370.
 Iteration    1 A^-1*A deviation from orthogonality  is 2.00D-15 for   1964    366.
 E= -633.323947645240    
 DIIS: error= 1.40D-08 at cycle   1 NSaved=   1.
 NSaved= 1 IEnMin= 1 EnMin= -633.323947645240     IErMin= 1 ErrMin= 1.40D-08
 ErrMax= 1.40D-08  0.00D+00 EMaxC= 1.00D-01 BMatC= 5.91D-14 BMatP= 5.91D-14
 IDIUse=1 WtCom= 1.00D+00 WtEn= 0.00D+00
 Coeff-Com:  0.100D+01
 Coeff:      0.100D+01
 Gap=     0.224 Goal=   None    Shift=    0.000
 RMSDP=3.06D-09 MaxDP=8.83D-08              OVMax= 2.64D-07

 Error on total polarization charges =  0.01425
 SCF Done:  E(RCAM-B3LYP) =  -633.323947645     A.U. after    1 cycles
            NFock=  1  Conv=0.31D-08     -V/T= 2.0042
 KE= 6.306983281927D+02 PE=-3.275901835980D+03 EE= 1.111935327428D+03
 Leave Link  502 at Fri Jan 23 15:39:43 2026, MaxMem=  2147483648 cpu:              85.4 elap:               5.6
 (Enter /data/home/wyx/g16/l801.exe)
 DoSCS=F DFT=T ScalE2(SS,OS)=  1.000000  1.000000
 ExpMin= 9.52D-02 ExpMax= 2.70D+04 ExpMxC= 9.22D+02 IAcc=3 IRadAn=         5 AccDes= 0.00D+00
 HarFok:  IExCor=  205 AccDes= 0.00D+00 IRadAn=         5 IDoV=-2 UseB2=F ITyADJ=14
 ICtDFT= 12500011 ScaDFX=  1.000000  1.000000  1.000000  1.000000
 Largest valence mixing into a core orbital is  5.60D-05
 Largest core mixing into a valence orbital is  1.16D-05
 Range of M.O.s used for correlation:    15   356
 NBasis=   356 NAE=    52 NBE=    52 NFC=    14 NFV=     0
 NROrb=    342 NOA=    38 NOB=    38 NVA=   304 NVB=   304

 **** Warning!!: The largest alpha MO coefficient is  0.60897548D+02

 Leave Link  801 at Fri Jan 23 15:39:44 2026, MaxMem=  2147483648 cpu:               1.0 elap:               0.1
 (Enter /data/home/wyx/g16/l914.exe)
 RHF ground state
 Two-electron integrals replicated using symmetry.
 MDV=  2147483648 DFT=T DoStab=F Mixed=T DoRPA=T DoScal=F NonHer=T
 NEqPCM:  Using equilibrium solvation (IEInf=0, Eps=   7.4257, EpsInf=   1.9740)
 Making orbital integer symmetry assigments:
 Orbital symmetries:
       Occupied  (A) (A) (A) (A) (A) (A) (A) (A) (A) (A) (A) (A)
                 (A) (A) (A) (A) (A) (A) (A) (A) (A) (A) (A) (A)
                 (A) (A) (A) (A) (A) (A) (A) (A) (A) (A) (A) (A)
                 (A) (A) (A) (A) (A) (A) (A) (A) (A) (A) (A) (A)
                 (A) (A) (A) (A)
       Virtual   (A) (A) (A) (A) (A) (A) (A) (A) (A) (A) (A) (A)
                 (A) (A) (A) (A) (A) (A) (A) (A) (A) (A) (A) (A)
                 (A) (A) (A) (A) (A) (A) (A) (A) (A) (A) (A) (A)
                 (A) (A) (A) (A) (A) (A) (A) (A) (A) (A) (A) (A)
                 (A) (A) (A) (A) (A) (A) (A) (A) (A) (A) (A) (A)
                 (A) (A) (A) (A) (A) (A) (A) (A) (A) (A) (A) (A)
                 (A) (A) (A) (A) (A) (A) (A) (A) (A) (A) (A) (A)
                 (A) (A) (A) (A) (A) (A) (A) (A) (A) (A) (A) (A)
                 (A) (A) (A) (A) (A) (A) (A) (A) (A) (A) (A) (A)
                 (A) (A) (A) (A) (A) (A) (A) (A) (A) (A) (A) (A)
                 (A) (A) (A) (A) (A) (A) (A) (A) (A) (A) (A) (A)
                 (A) (A) (A) (A) (A) (A) (A) (A) (A) (A) (A) (A)
                 (A) (A) (A) (A) (A) (A) (A) (A) (A) (A) (A) (A)
                 (A) (A) (A) (A) (A) (A) (A) (A) (A) (A) (A) (A)
                 (A) (A) (A) (A) (A) (A) (A) (A) (A) (A) (A) (A)
                 (A) (A) (A) (A) (A) (A) (A) (A) (A) (A) (A) (A)
                 (A) (A) (A) (A) (A) (A) (A) (A) (A) (A) (A) (A)
                 (A) (A) (A) (A) (A) (A) (A) (A) (A) (A) (A) (A)
                 (A) (A) (A) (A) (A) (A) (A) (A) (A) (A) (A) (A)
                 (A) (A) (A) (A) (A) (A) (A) (A) (A) (A) (A) (A)
                 (A) (A) (A) (A) (A) (A) (A) (A) (A) (A) (A) (A)
                 (A) (A) (A) (A) (A) (A) (A) (A) (A) (A) (A) (A)
                 (A) (A) (A) (A) (A) (A) (A) (A) (A) (A) (A) (A)
                 (A) (A) (A) (A) (A) (A) (A) (A) (A) (A) (A) (A)
                 (A) (A) (A) (A) (A) (A) (A) (A) (A) (A) (A) (A)
                 (A) (A) (A) (A)
    24 initial guesses have been made.
 Convergence on wavefunction:    0.001000000000000
 Davidson Disk Diagonalization:  ConvIn= 1.00D-03 SkipCon=T Conv= 1.00D-03.
 Max sub-space:  2000 roots to seek:    24 dimension of matrix:        23104
 Iteration     1 Dimension    24 NMult     0 NNew     24
 CISAX will form    24 AO SS matrices at one time.
 NMat=    24 NSing=    24 JSym2X= 0.
 FoFJK:  IHMeth= 1 ICntrl=       0 DoSepK=T KAlg= 0 I1Cent=           0 FoldK=F
 IRaf=         1 NMat=      48 IRICut=       1 DoRegI=T DoRafI=F ISym2E= 0 IDoP0=3 IntGTp=3.
 FoFCou: FMM=F IPFlag=           0 FMFlag=      100000 FMFlg1=           0
         NFxFlg=           0 DoJE=F BraDBF=F KetDBF=F FulRan=T
         wScrn=  0.000000 ICntrl=       500 IOpCl=  0 I1Cent=           0 NGrid=           0
         NMat0=   24 NMatS0=     24 NMatT0=    0 NMatD0=   24 NMtDS0=    0 NMtDT0=    0
 Symmetry not used in FoFCou.
 New state      2 was old state      3
 New state      3 was old state      4
 New state      4 was old state      2
 New state      5 was old state      6
 New state      6 was old state      5
 Excitation Energies [eV] at current iteration:
 Root      1 :     3.520692454293765
 Root      2 :     4.204030011590903
 Root      3 :     4.410827483244791
 Root      4 :     5.337857012100852
 Root      5 :     5.934199932968737
 Root      6 :     6.115890374615376
 Root      7 :     6.500729630390930
 Root      8 :     6.714196744604329
 Root      9 :     6.861534967203886
 Root     10 :     6.976307998373827
 Root     11 :     7.114218637652971
 Root     12 :     7.292926711127527
 Root     13 :     7.387410626342165
 Root     14 :     7.441278171948725
 Root     15 :     7.678550733308969
 Root     16 :     7.926494914388017
 Root     17 :     8.010501898216273
 Root     18 :     8.112608466224582
 Root     19 :     8.189747496295263
 Root     20 :     8.318281210706802
 Root     21 :     8.413745178780676
 Root     22 :     8.570254308815921
 Root     23 :     8.665631178769688
 Root     24 :     8.829433270249341
 Iteration     2 Dimension    36 NMult    24 NNew     12
 CISAX will form    12 AO SS matrices at one time.
 NMat=    12 NSing=    12 JSym2X= 0.
 Root      1 not converged, maximum delta is    0.043662945426665
 Root      2 not converged, maximum delta is    0.076003713378243
 Root      3 not converged, maximum delta is    0.091923853823203
 Root      4 not converged, maximum delta is    0.327184717902312
 New state      5 was old state      6
 Root      5 not converged, maximum delta is    0.318614303378439
 New state      6 was old state      5
 Root      6 not converged, maximum delta is    0.141475332638315
 Excitation Energies [eV] at current iteration:
 Root      1 :     3.085092411280536   Change is   -0.435600043013229
 Root      2 :     3.985303741470505   Change is   -0.218726270120398
 Root      3 :     4.149094710744399   Change is   -0.261732772500391
 Root      4 :     4.938558038937368   Change is   -0.399298973163483
 Root      5 :     5.392432820379988   Change is   -0.723457554235388
 Root      6 :     5.828615726337746   Change is   -0.105584206630991
 Iteration     3 Dimension    48 NMult    36 NNew     12
 CISAX will form    12 AO SS matrices at one time.
 NMat=    12 NSing=    12 JSym2X= 0.
 Root      1 not converged, maximum delta is    0.006711166533343
 Root      2 not converged, maximum delta is    0.016259912210374
 Root      3 not converged, maximum delta is    0.013567239394482
 Root      4 not converged, maximum delta is    0.014639534948602
 Root      5 not converged, maximum delta is    0.015206637997771
 Root      6 not converged, maximum delta is    0.006601424946772
 Excitation Energies [eV] at current iteration:
 Root      1 :     3.070288521520797   Change is   -0.014803889759739
 Root      2 :     3.972709639520436   Change is   -0.012594101950069
 Root      3 :     4.135289601938594   Change is   -0.013805108805805
 Root      4 :     4.918780203529348   Change is   -0.019777835408020
 Root      5 :     5.373272946648965   Change is   -0.019159873731023
 Root      6 :     5.824092050788229   Change is   -0.004523675549517
 Iteration     4 Dimension    60 NMult    48 NNew     12
 CISAX will form    12 AO SS matrices at one time.
 NMat=    12 NSing=    12 JSym2X= 0.
 Root      1 not converged, maximum delta is    0.002257106131219
 Root      2 not converged, maximum delta is    0.001862211657854
 Root      3 not converged, maximum delta is    0.002361250249788
 Root      4 not converged, maximum delta is    0.002718965030555
 Root      5 not converged, maximum delta is    0.002721843550927
 Root      6 not converged, maximum delta is    0.001957515996110
 Excitation Energies [eV] at current iteration:
 Root      1 :     3.069126483070325   Change is   -0.001162038450472
 Root      2 :     3.972071033075642   Change is   -0.000638606444794
 Root      3 :     4.134345826106076   Change is   -0.000943775832519
 Root      4 :     4.916995669781867   Change is   -0.001784533747480
 Root      5 :     5.371397687725389   Change is   -0.001875258923576
 Root      6 :     5.823797960946611   Change is   -0.000294089841618
 Iteration     5 Dimension    72 NMult    60 NNew     12
 CISAX will form    12 AO SS matrices at one time.
 NMat=    12 NSing=    12 JSym2X= 0.
 Root      1 has converged.
 Root      2 has converged.
 Root      3 has converged.
 Root      4 has converged.
 Root      5 not converged, maximum delta is    0.001077883116684
 Root      6 has converged.
 Excitation Energies [eV] at current iteration:
 Root      1 :     3.069074522676961   Change is   -0.000051960393364
 Root      2 :     3.972030878032995   Change is   -0.000040155042647
 Root      3 :     4.134303566090895   Change is   -0.000042260015181
 Root      4 :     4.916871644397977   Change is   -0.000124025383890
 Root      5 :     5.371248544763803   Change is   -0.000149142961586
 Root      6 :     5.823776022747317   Change is   -0.000021938199294
 Iteration     6 Dimension    74 NMult    72 NNew      2
 CISAX will form     2 AO SS matrices at one time.
 NMat=     2 NSing=     2 JSym2X= 0.
 Root      1 has converged.
 Root      2 has converged.
 Root      3 has converged.
 Root      4 has converged.
 Root      5 has converged.
 Root      6 has converged.
 Excitation Energies [eV] at current iteration:
 Root      1 :     3.069074487978116   Change is   -0.000000034698846
 Root      2 :     3.972030825380215   Change is   -0.000000052652780
 Root      3 :     4.134303480195041   Change is   -0.000000085895854
 Root      4 :     4.916869263667790   Change is   -0.000002380730188
 Root      5 :     5.371234786267634   Change is   -0.000013758496169
 Root      6 :     5.823775944836212   Change is   -0.000000077911105
 Convergence achieved on expansion vectors.
 ***********************************************************************
 Excited states from <AA,BB:AA,BB> singles matrix:
 ***********************************************************************
 
 1PDM for each excited state written to RWF  633
 Ground to excited state transition densities written to RWF  633
 Ground to excited state transition electric dipole moments (Au):
       state          X           Y           Z        Dip. S.      Osc.
         1         1.6253     -0.1858     -0.0501      2.6787      0.2014
         2        -0.0443     -0.0348      0.0380      0.0046      0.0004
         3        -0.0511      0.1184     -0.0270      0.0174      0.0018
         4         0.1942      1.7315     -0.0751      3.0413      0.3664
         5        -0.0668     -1.5305      0.0075      2.3470      0.3089
         6        -0.0217     -0.2230     -0.0494      0.0526      0.0075
 Ground to excited state transition velocity dipole moments (Au):
       state          X           Y           Z        Dip. S.      Osc.
         1        -0.1759      0.0166      0.0060      0.0313      0.1848
         2         0.0061      0.0054     -0.0024      0.0001      0.0003
         3         0.0073     -0.0159      0.0007      0.0003      0.0013
         4        -0.0392     -0.2992      0.0101      0.0911      0.3363
         5         0.0137      0.2962     -0.0025      0.0879      0.2969
         6         0.0057      0.0452      0.0306      0.0030      0.0094
 Ground to excited state transition magnetic dipole moments (Au):
       state          X           Y           Z
         1         0.0346     -0.0464      1.4714
         2         0.7928     -0.1162     -0.1589
         3         0.1868     -0.9776     -0.2120
         4        -0.0325      0.0767     -0.0705
         5         0.1346     -0.1023      0.2833
         6        -0.0321      0.0137     -0.0303
 Ground to excited state transition velocity quadrupole moments (Au):
       state          XX          YY          ZZ          XY          XZ          YZ
         1         0.1680     -0.0921     -0.0052      0.5000     -0.0377     -0.0174
         2         0.0188     -0.0078     -0.0070     -0.0221      0.0096      0.0798
         3        -0.0156      0.0015      0.0208     -0.0635      0.0638      0.0101
         4         1.3153     -0.2846     -0.0089     -0.0741     -0.0780      0.0349
         5        -0.4710      0.2830      0.0382      0.2318      0.0633      0.0130
         6         0.1587      0.1637     -0.1397     -0.0155     -0.0298     -0.1002
 <0|del|b> * <b|rxdel|0> + <0|del|b> * <b|delr+rdel|0>
 Rotatory Strengths (R) in cgs (10**-40 erg-esu-cm/Gauss)
       state          XX          YY          ZZ    R(velocity)    E-M Angle
         1        36.9305      8.9370    -33.0214      4.2821       89.55
         2        -0.5781     13.6480      9.0917      7.3872       48.79
         3        38.2028      3.0992     36.8861     26.0627       19.68
         4       -93.4264     -0.1132      5.9648    -29.1916      132.79
         5       -90.1781      3.3850    -17.7237    -34.8389      107.35
         6         0.9382     -1.9952     -0.5613     -0.5394      101.13
 1/2[<0|r|b>*<b|rxdel|0> + (<0|rxdel|b>*<b|r|0>)*]
 Rotatory Strengths (R) in cgs (10**-40 erg-esu-cm/Gauss)
       state          XX          YY          ZZ     R(length)
         1       -39.7284     -6.1012     52.1792      2.1166
         2        24.8185     -2.8569      4.2713      8.7443
         3         6.7533     81.8822     -4.0426     28.1977
         4         4.4664    -93.8973     -3.7435    -31.0581
         5         6.3582   -110.7105     -1.5003    -35.2842
         6        -0.4927      2.1646     -1.0577      0.2047
  1/2[<0|del|b>*<b|r|0> + (<0|r|b>*<b|del|0>)*] (Au)
       state          X           Y           Z        Dip. S.   Osc.(frdel)
         1        -0.2860     -0.0031     -0.0003      0.2893      0.1929
         2        -0.0003     -0.0002     -0.0001      0.0006      0.0004
         3        -0.0004     -0.0019     -0.0000      0.0023      0.0015
         4        -0.0076     -0.5180     -0.0008      0.5264      0.3509
         5        -0.0009     -0.4533     -0.0000      0.4542      0.3028
         6        -0.0001     -0.0101     -0.0015      0.0117      0.0078

 Excitation energies and oscillator strengths:
 
 Excited State   1:      Singlet-A      3.0691 eV  403.98 nm  f=0.2014  <S**2>=0.000
      52 -> 53         0.70110
 This state for optimization and/or second-order correction.
 Total Energy, E(TD-HF/TD-DFT) =  -633.211161233    
 Copying the excited state density for this state as the 1-particle RhoCI density.
 
 Excited State   2:      Singlet-A      3.9720 eV  312.14 nm  f=0.0004  <S**2>=0.000
      50 -> 54         0.17521
      51 -> 53         0.58236
      51 -> 54         0.31845
 
 Excited State   3:      Singlet-A      4.1343 eV  299.89 nm  f=0.0018  <S**2>=0.000
      49 -> 53         0.23839
      49 -> 54        -0.14427
      50 -> 53         0.53936
      50 -> 54        -0.24948
      50 -> 58         0.11320
      51 -> 54         0.20023
 
 Excited State   4:      Singlet-A      4.9169 eV  252.16 nm  f=0.3664  <S**2>=0.000
      52 -> 54         0.69576
 
 Excited State   5:      Singlet-A      5.3712 eV  230.83 nm  f=0.3089  <S**2>=0.000
      49 -> 53         0.62296
      50 -> 53        -0.27992
      51 -> 53         0.10232
 
 Excited State   6:      Singlet-A      5.8238 eV  212.89 nm  f=0.0075  <S**2>=0.000
      52 -> 55         0.65106
      52 -> 56         0.16816
      52 -> 57         0.11128
 SavETr:  write IOETrn=   770 NScale= 10 NData=  16 NLR=1 NState=    6 LETran=     118.
 Leave Link  914 at Fri Jan 23 15:41:53 2026, MaxMem=  2147483648 cpu:            2056.5 elap:             129.0
 (Enter /data/home/wyx/g16/l601.exe)
 Copying SCF densities to generalized density rwf, IOpCl= 0 IROHF=0.

 **********************************************************************

            Population analysis using the SCF density.

 **********************************************************************

 Orbital symmetries:
       Occupied  (A) (A) (A) (A) (A) (A) (A) (A) (A) (A) (A) (A)
                 (A) (A) (A) (A) (A) (A) (A) (A) (A) (A) (A) (A)
                 (A) (A) (A) (A) (A) (A) (A) (A) (A) (A) (A) (A)
                 (A) (A) (A) (A) (A) (A) (A) (A) (A) (A) (A) (A)
                 (A) (A) (A) (A)
       Virtual   (A) (A) (A) (A) (A) (A) (A) (A) (A) (A) (A) (A)
                 (A) (A) (A) (A) (A) (A) (A) (A) (A) (A) (A) (A)
                 (A) (A) (A) (A) (A) (A) (A) (A) (A) (A) (A) (A)
                 (A) (A) (A) (A) (A) (A) (A) (A) (A) (A) (A) (A)
                 (A) (A) (A) (A) (A) (A) (A) (A) (A) (A) (A) (A)
                 (A) (A) (A) (A) (A) (A) (A) (A) (A) (A) (A) (A)
                 (A) (A) (A) (A) (A) (A) (A) (A) (A) (A) (A) (A)
                 (A) (A) (A) (A) (A) (A) (A) (A) (A) (A) (A) (A)
                 (A) (A) (A) (A) (A) (A) (A) (A) (A) (A) (A) (A)
                 (A) (A) (A) (A) (A) (A) (A) (A) (A) (A) (A) (A)
                 (A) (A) (A) (A) (A) (A) (A) (A) (A) (A) (A) (A)
                 (A) (A) (A) (A) (A) (A) (A) (A) (A) (A) (A) (A)
                 (A) (A) (A) (A) (A) (A) (A) (A) (A) (A) (A) (A)
                 (A) (A) (A) (A) (A) (A) (A) (A) (A) (A) (A) (A)
                 (A) (A) (A) (A) (A) (A) (A) (A) (A) (A) (A) (A)
                 (A) (A) (A) (A) (A) (A) (A) (A) (A) (A) (A) (A)
                 (A) (A) (A) (A) (A) (A) (A) (A) (A) (A) (A) (A)
                 (A) (A) (A) (A) (A) (A) (A) (A) (A) (A) (A) (A)
                 (A) (A) (A) (A) (A) (A) (A) (A) (A) (A) (A) (A)
                 (A) (A) (A) (A) (A) (A) (A) (A) (A) (A) (A) (A)
                 (A) (A) (A) (A) (A) (A) (A) (A) (A) (A) (A) (A)
                 (A) (A) (A) (A) (A) (A) (A) (A) (A) (A) (A) (A)
                 (A) (A) (A) (A) (A) (A) (A) (A) (A) (A) (A) (A)
                 (A) (A) (A) (A) (A) (A) (A) (A) (A) (A) (A) (A)
                 (A) (A) (A) (A) (A) (A) (A) (A) (A) (A) (A) (A)
                 (A) (A) (A) (A)
 The electronic state is 1-A.
 Alpha  occ. eigenvalues --  -19.17808 -19.16988 -14.44617 -10.33358 -10.32799
 Alpha  occ. eigenvalues --  -10.32630 -10.32006 -10.26137 -10.25303 -10.24969
 Alpha  occ. eigenvalues --  -10.24619 -10.24511 -10.24227 -10.23572  -1.11559
 Alpha  occ. eigenvalues --   -1.11048  -1.08282  -0.91436  -0.90484  -0.83957
 Alpha  occ. eigenvalues --   -0.82679  -0.81697  -0.78568  -0.73916  -0.71954
 Alpha  occ. eigenvalues --   -0.68689  -0.61626  -0.58319  -0.56982  -0.55188
 Alpha  occ. eigenvalues --   -0.54667  -0.54018  -0.52562  -0.51841  -0.50871
 Alpha  occ. eigenvalues --   -0.49777  -0.49536  -0.49285  -0.48677  -0.48082
 Alpha  occ. eigenvalues --   -0.47131  -0.45269  -0.45183  -0.43860  -0.43225
 Alpha  occ. eigenvalues --   -0.42228  -0.42173  -0.41631  -0.32669  -0.32173
 Alpha  occ. eigenvalues --   -0.31139  -0.25373
 Alpha virt. eigenvalues --   -0.03005   0.02573   0.06246   0.08033   0.08416
 Alpha virt. eigenvalues --    0.09827   0.10725   0.11677   0.12543   0.13455
 Alpha virt. eigenvalues --    0.13905   0.14838   0.15592   0.16310   0.16932
 Alpha virt. eigenvalues --    0.17518   0.17845   0.18072   0.18288   0.19217
 Alpha virt. eigenvalues --    0.19891   0.22053   0.22808   0.23500   0.23822
 Alpha virt. eigenvalues --    0.23933   0.24779   0.25637   0.26225   0.26646
 Alpha virt. eigenvalues --    0.27199   0.27922   0.28643   0.29251   0.30124
 Alpha virt. eigenvalues --    0.31704   0.31926   0.32400   0.33470   0.34410
 Alpha virt. eigenvalues --    0.34821   0.35939   0.36690   0.38022   0.38480
 Alpha virt. eigenvalues --    0.39739   0.41033   0.41419   0.41911   0.42530
 Alpha virt. eigenvalues --    0.44023   0.44715   0.45566   0.46217   0.46411
 Alpha virt. eigenvalues --    0.47306   0.47755   0.47998   0.48361   0.49164
 Alpha virt. eigenvalues --    0.49540   0.50598   0.51146   0.51458   0.51589
 Alpha virt. eigenvalues --    0.52724   0.52909   0.53366   0.53792   0.54240
 Alpha virt. eigenvalues --    0.54453   0.55471   0.56010   0.56709   0.58310
 Alpha virt. eigenvalues --    0.58498   0.59765   0.61013   0.61407   0.62969
 Alpha virt. eigenvalues --    0.63881   0.65387   0.66467   0.66696   0.67784
 Alpha virt. eigenvalues --    0.68636   0.69668   0.71031   0.71619   0.72280
 Alpha virt. eigenvalues --    0.73163   0.74355   0.74910   0.75901   0.77762
 Alpha virt. eigenvalues --    0.78977   0.80127   0.83018   0.86067   0.87079
 Alpha virt. eigenvalues --    0.90698   0.94872   1.01760   1.03643   1.22617
 Alpha virt. eigenvalues --    1.24734   1.27201   1.28267   1.29383   1.30849
 Alpha virt. eigenvalues --    1.32243   1.32915   1.34287   1.34955   1.36222
 Alpha virt. eigenvalues --    1.36560   1.37691   1.38438   1.38941   1.39815
 Alpha virt. eigenvalues --    1.39904   1.40487   1.40775   1.41339   1.41893
 Alpha virt. eigenvalues --    1.43472   1.43668   1.44250   1.45276   1.47372
 Alpha virt. eigenvalues --    1.48018   1.49523   1.50059   1.50300   1.50727
 Alpha virt. eigenvalues --    1.51316   1.52498   1.52675   1.55169   1.58222
 Alpha virt. eigenvalues --    1.59043   1.60453   1.60828   1.61481   1.62571
 Alpha virt. eigenvalues --    1.62691   1.63193   1.64012   1.64452   1.65873
 Alpha virt. eigenvalues --    1.66616   1.67079   1.67613   1.68023   1.68509
 Alpha virt. eigenvalues --    1.69032   1.69895   1.70103   1.71264   1.72417
 Alpha virt. eigenvalues --    1.74049   1.74973   1.75883   1.76616   1.78584
 Alpha virt. eigenvalues --    1.81171   1.82869   1.84033   1.85955   1.86565
 Alpha virt. eigenvalues --    1.86679   1.87989   1.88599   1.88933   1.90333
 Alpha virt. eigenvalues --    1.91255   1.94557   1.95095   1.99040   1.99760
 Alpha virt. eigenvalues --    2.01445   2.03919   2.05426   2.06826   2.09584
 Alpha virt. eigenvalues --    2.10629   2.12098   2.15476   2.17463   2.19713
 Alpha virt. eigenvalues --    2.20263   2.21311   2.22061   2.23024   2.26334
 Alpha virt. eigenvalues --    2.27228   2.27568   2.29370   2.31365   2.32376
 Alpha virt. eigenvalues --    2.33904   2.34305   2.36895   2.37987   2.38861
 Alpha virt. eigenvalues --    2.39600   2.40315   2.41520   2.42967   2.45048
 Alpha virt. eigenvalues --    2.46014   2.48010   2.49626   2.50221   2.51304
 Alpha virt. eigenvalues --    2.52387   2.54188   2.54854   2.56575   2.57698
 Alpha virt. eigenvalues --    2.58857   2.60829   2.61810   2.62595   2.63352
 Alpha virt. eigenvalues --    2.64683   2.65795   2.66675   2.67451   2.68532
 Alpha virt. eigenvalues --    2.71843   2.72113   2.73610   2.74635   2.75292
 Alpha virt. eigenvalues --    2.76113   2.76879   2.77349   2.78163   2.79135
 Alpha virt. eigenvalues --    2.80709   2.81999   2.83170   2.84095   2.84674
 Alpha virt. eigenvalues --    2.85578   2.86517   2.88708   2.89475   2.91978
 Alpha virt. eigenvalues --    2.97556   2.99243   3.00821   3.06333   3.10832
 Alpha virt. eigenvalues --    3.12407   3.14956   3.17631   3.18800   3.21465
 Alpha virt. eigenvalues --    3.21907   3.23819   3.24754   3.25888   3.26960
 Alpha virt. eigenvalues --    3.28161   3.30147   3.32958   3.34552   3.36650
 Alpha virt. eigenvalues --    3.37884   3.38871   3.39664   3.40006   3.41940
 Alpha virt. eigenvalues --    3.42257   3.44377   3.45237   3.47708   3.48492
 Alpha virt. eigenvalues --    3.49550   3.50028   3.55579   3.58542   3.60124
 Alpha virt. eigenvalues --    3.61027   3.90977   4.00606   4.33646   4.36515
 Alpha virt. eigenvalues --   21.66845  21.80658  22.08301  22.10688  22.11809
 Alpha virt. eigenvalues --   22.15039  22.15303  22.18723  22.19665  22.24941
 Alpha virt. eigenvalues --   22.28318  31.91848  43.63828  43.66624
          Condensed to atoms (all electrons):
               1          2          3          4          5          6
     1  O    7.930801   0.000000  -0.000194   0.000019   0.019033   0.010855
     2  O    0.000000   7.975503   0.000424   0.000020  -0.196044   0.001254
     3  N   -0.000194   0.000424   6.377706   0.370503  -0.120327   0.327891
     4  H    0.000019   0.000020   0.370503   0.411969   0.016482  -0.046419
     5  C    0.019033  -0.196044  -0.120327   0.016482   7.125768  -0.078513
     6  C    0.010855   0.001254   0.327891  -0.046419  -0.078513   5.582101
     7  C   -0.000182  -0.045799   0.390984  -0.037634   0.451773  -0.121145
     8  C   -0.000592   0.706336   0.004338  -0.000814  -0.320441   0.031885
     9  C   -0.008348   0.024659   0.012851   0.000005  -0.670520  -0.055884
    10  H    0.010272  -0.000006  -0.001299   0.000022  -0.118581   0.028212
    11  H    0.006616   0.000128   0.003740   0.000032  -0.047921  -0.019688
    12  C   -0.228867  -0.002944  -0.088720   0.014572   0.186599  -0.103919
    13  C    0.715084  -0.000019   0.001520   0.000530   0.082120   0.136817
    14  C   -0.000008  -0.005525  -0.033570  -0.010222  -0.085603   0.011154
    15  H   -0.000000   0.004220   0.004466   0.002048   0.020713   0.006456
    16  H   -0.000000   0.002083   0.000037   0.000790  -0.006574  -0.001144
    17  H   -0.000000   0.002805  -0.002342   0.000920  -0.007853  -0.001515
    18  C    0.000195  -0.102662  -0.000512   0.000021  -0.259238   0.000178
    19  H   -0.000001   0.008015   0.000004  -0.000001   0.024102   0.000021
    20  H    0.000135   0.004093   0.000117   0.000001   0.045109  -0.001232
    21  H   -0.000000   0.000822   0.000012  -0.000001   0.002901   0.000213
    22  C   -0.105947   0.000000  -0.000154   0.000120   0.004260  -0.020728
    23  H    0.001360   0.000000   0.000007  -0.000013  -0.000029   0.009557
    24  H    0.004968  -0.000000   0.000118  -0.000055  -0.000703  -0.028310
    25  H    0.006834   0.000000   0.000024  -0.000003  -0.000150  -0.000880
    26  C    0.000836   0.000009  -0.026644  -0.006372   0.000524   0.187896
    27  H   -0.000052  -0.000000  -0.002508   0.000479   0.000382  -0.033493
    28  H   -0.000241  -0.000000   0.001578   0.000767   0.000018  -0.046640
    29  H    0.000024   0.000000   0.001714   0.001782  -0.000369  -0.049773
               7          8          9         10         11         12
     1  O   -0.000182  -0.000592  -0.008348   0.010272   0.006616  -0.228867
     2  O   -0.045799   0.706336   0.024659  -0.000006   0.000128  -0.002944
     3  N    0.390984   0.004338   0.012851  -0.001299   0.003740  -0.088720
     4  H   -0.037634  -0.000814   0.000005   0.000022   0.000032   0.014572
     5  C    0.451773  -0.320441  -0.670520  -0.118581  -0.047921   0.186599
     6  C   -0.121145   0.031885  -0.055884   0.028212  -0.019688  -0.103919
     7  C    5.406769  -0.225013  -0.207616   0.016808  -0.006451   0.021665
     8  C   -0.225013   5.393074   0.178663  -0.009578  -0.002208  -0.047232
     9  C   -0.207616   0.178663   6.406819   0.542143   0.408398  -0.111248
    10  H    0.016808  -0.009578   0.542143   0.526477  -0.046017  -0.110842
    11  H   -0.006451  -0.002208   0.408398  -0.046017   0.575881  -0.013242
    12  C    0.021665  -0.047232  -0.111248  -0.110842  -0.013242   7.357912
    13  C    0.017317  -0.008519  -0.246463  -0.001207  -0.005547  -0.465029
    14  C    0.284206  -0.032058   0.007379   0.000527  -0.001013  -0.001379
    15  H   -0.084330   0.005460   0.000589  -0.000004   0.000049  -0.001527
    16  H   -0.024683  -0.006994  -0.000418  -0.000054   0.000184   0.000120
    17  H   -0.019890  -0.001789   0.000863   0.000058  -0.000063   0.000478
    18  C   -0.000465   0.324796   0.001103   0.007557  -0.012287  -0.001942
    19  H    0.000302  -0.052782  -0.001683   0.000598   0.000065  -0.000170
    20  H    0.003368  -0.069909  -0.009054  -0.006916   0.002875   0.007373
    21  H   -0.000195  -0.024438  -0.009477  -0.001008   0.000774  -0.002793
    22  C    0.000120  -0.000070   0.008594  -0.000567   0.002770  -0.254559
    23  H   -0.000003   0.000002  -0.002254  -0.000124   0.000174  -0.011315
    24  H   -0.000011   0.000003   0.003071   0.000048  -0.000194   0.066195
    25  H    0.000009   0.000003   0.000188  -0.000064  -0.000081   0.020539
    26  C    0.002734   0.000746   0.022073   0.000121  -0.000730  -0.084034
    27  H   -0.000820  -0.000013  -0.000376   0.000042  -0.000013  -0.018246
    28  H   -0.000734   0.000002  -0.000267   0.000011  -0.000109  -0.007627
    29  H    0.003226  -0.000005  -0.000565  -0.000014   0.000094   0.023363
              13         14         15         16         17         18
     1  O    0.715084  -0.000008  -0.000000  -0.000000  -0.000000   0.000195
     2  O   -0.000019  -0.005525   0.004220   0.002083   0.002805  -0.102662
     3  N    0.001520  -0.033570   0.004466   0.000037  -0.002342  -0.000512
     4  H    0.000530  -0.010222   0.002048   0.000790   0.000920   0.000021
     5  C    0.082120  -0.085603   0.020713  -0.006574  -0.007853  -0.259238
     6  C    0.136817   0.011154   0.006456  -0.001144  -0.001515   0.000178
     7  C    0.017317   0.284206  -0.084330  -0.024683  -0.019890  -0.000465
     8  C   -0.008519  -0.032058   0.005460  -0.006994  -0.001789   0.324796
     9  C   -0.246463   0.007379   0.000589  -0.000418   0.000863   0.001103
    10  H   -0.001207   0.000527  -0.000004  -0.000054   0.000058   0.007557
    11  H   -0.005547  -0.001013   0.000049   0.000184  -0.000063  -0.012287
    12  C   -0.465029  -0.001379  -0.001527   0.000120   0.000478  -0.001942
    13  C    5.534402   0.000084  -0.000038  -0.000004  -0.000009   0.001159
    14  C    0.000084   5.035515   0.390120   0.417381   0.407966   0.001343
    15  H   -0.000038   0.390120   0.581260  -0.027750  -0.026072   0.000247
    16  H   -0.000004   0.417381  -0.027750   0.508272  -0.025971  -0.000188
    17  H   -0.000009   0.407966  -0.026072  -0.025971   0.506393   0.000055
    18  C    0.001159   0.001343   0.000247  -0.000188   0.000055   5.325404
    19  H   -0.000012   0.000040  -0.000005   0.000036  -0.000032   0.395493
    20  H    0.000790   0.000075  -0.000015  -0.000032   0.000002   0.379618
    21  H   -0.000139  -0.000227  -0.000005   0.000015  -0.000007   0.399409
    22  C    0.284612  -0.000014   0.000002  -0.000000   0.000000   0.000035
    23  H   -0.022286  -0.000001   0.000000  -0.000000   0.000000  -0.000002
    24  H   -0.097844   0.000002   0.000000   0.000000   0.000000   0.000002
    25  H   -0.036494   0.000000   0.000000   0.000000  -0.000000  -0.000001
    26  C   -0.054225   0.000791   0.000222   0.000031  -0.000104   0.000013
    27  H    0.006673  -0.000109  -0.000003   0.000004  -0.000006  -0.000000
    28  H   -0.002972   0.000068  -0.000009  -0.000002   0.000001  -0.000000
    29  H   -0.001147  -0.000178   0.000103  -0.000003   0.000001   0.000000
              19         20         21         22         23         24
     1  O   -0.000001   0.000135  -0.000000  -0.105947   0.001360   0.004968
     2  O    0.008015   0.004093   0.000822   0.000000   0.000000  -0.000000
     3  N    0.000004   0.000117   0.000012  -0.000154   0.000007   0.000118
     4  H   -0.000001   0.000001  -0.000001   0.000120  -0.000013  -0.000055
     5  C    0.024102   0.045109   0.002901   0.004260  -0.000029  -0.000703
     6  C    0.000021  -0.001232   0.000213  -0.020728   0.009557  -0.028310
     7  C    0.000302   0.003368  -0.000195   0.000120  -0.000003  -0.000011
     8  C   -0.052782  -0.069909  -0.024438  -0.000070   0.000002   0.000003
     9  C   -0.001683  -0.009054  -0.009477   0.008594  -0.002254   0.003071
    10  H    0.000598  -0.006916  -0.001008  -0.000567  -0.000124   0.000048
    11  H    0.000065   0.002875   0.000774   0.002770   0.000174  -0.000194
    12  C   -0.000170   0.007373  -0.002793  -0.254559  -0.011315   0.066195
    13  C   -0.000012   0.000790  -0.000139   0.284612  -0.022286  -0.097844
    14  C    0.000040   0.000075  -0.000227  -0.000014  -0.000001   0.000002
    15  H   -0.000005  -0.000015  -0.000005   0.000002   0.000000   0.000000
    16  H    0.000036  -0.000032   0.000015  -0.000000  -0.000000   0.000000
    17  H   -0.000032   0.000002  -0.000007   0.000000   0.000000   0.000000
    18  C    0.395493   0.379618   0.399409   0.000035  -0.000002   0.000002
    19  H    0.506679  -0.024449  -0.009795  -0.000000   0.000000   0.000000
    20  H   -0.024449   0.540569  -0.024284   0.000028  -0.000000  -0.000000
    21  H   -0.009795  -0.024284   0.494087  -0.000012   0.000000   0.000000
    22  C   -0.000000   0.000028  -0.000012   5.425569   0.400769   0.396831
    23  H    0.000000  -0.000000   0.000000   0.400769   0.494837  -0.027771
    24  H    0.000000  -0.000000   0.000000   0.396831  -0.027771   0.547390
    25  H   -0.000000  -0.000000   0.000000   0.383352  -0.007832  -0.022385
    26  C    0.000000  -0.000017   0.000003  -0.031361  -0.011567   0.016680
    27  H    0.000000  -0.000000  -0.000000  -0.010866   0.000951  -0.001734
    28  H   -0.000000  -0.000000   0.000000   0.005360  -0.000054  -0.008039
    29  H    0.000000   0.000000  -0.000000   0.002039   0.000183   0.000633
              25         26         27         28         29
     1  O    0.006834   0.000836  -0.000052  -0.000241   0.000024
     2  O    0.000000   0.000009  -0.000000  -0.000000   0.000000
     3  N    0.000024  -0.026644  -0.002508   0.001578   0.001714
     4  H   -0.000003  -0.006372   0.000479   0.000767   0.001782
     5  C   -0.000150   0.000524   0.000382   0.000018  -0.000369
     6  C   -0.000880   0.187896  -0.033493  -0.046640  -0.049773
     7  C    0.000009   0.002734  -0.000820  -0.000734   0.003226
     8  C    0.000003   0.000746  -0.000013   0.000002  -0.000005
     9  C    0.000188   0.022073  -0.000376  -0.000267  -0.000565
    10  H   -0.000064   0.000121   0.000042   0.000011  -0.000014
    11  H   -0.000081  -0.000730  -0.000013  -0.000109   0.000094
    12  C    0.020539  -0.084034  -0.018246  -0.007627   0.023363
    13  C   -0.036494  -0.054225   0.006673  -0.002972  -0.001147
    14  C    0.000000   0.000791  -0.000109   0.000068  -0.000178
    15  H    0.000000   0.000222  -0.000003  -0.000009   0.000103
    16  H    0.000000   0.000031   0.000004  -0.000002  -0.000003
    17  H   -0.000000  -0.000104  -0.000006   0.000001   0.000001
    18  C   -0.000001   0.000013  -0.000000  -0.000000   0.000000
    19  H   -0.000000   0.000000   0.000000  -0.000000   0.000000
    20  H   -0.000000  -0.000017  -0.000000  -0.000000   0.000000
    21  H    0.000000   0.000003  -0.000000   0.000000  -0.000000
    22  C    0.383352  -0.031361  -0.010866   0.005360   0.002039
    23  H   -0.007832  -0.011567   0.000951  -0.000054   0.000183
    24  H   -0.022385   0.016680  -0.001734  -0.008039   0.000633
    25  H    0.492816   0.001872   0.000119   0.000646  -0.000037
    26  C    0.001872   5.244459   0.427728   0.430442   0.388818
    27  H    0.000119   0.427728   0.480490  -0.027096  -0.017599
    28  H    0.000646   0.430442  -0.027096   0.506245  -0.025377
    29  H   -0.000037   0.388818  -0.017599  -0.025377   0.519322
 Mulliken charges:
               1
     1  O   -0.362597
     2  O   -0.377373
     3  N   -0.221766
     4  H    0.280451
     5  C   -0.066917
     6  C    0.274794
     7  C    0.175689
     8  C    0.157147
     9  C   -0.293223
    10  H    0.163387
    11  H    0.153782
    12  C   -0.143181
    13  C    0.160848
    14  C   -0.386745
    15  H    0.123803
    16  H    0.164866
    17  H    0.166111
    18  C   -0.459329
    19  H    0.153574
    20  H    0.151758
    21  H    0.174147
    22  C   -0.490180
    23  H    0.175409
    24  H    0.151106
    25  H    0.161524
    26  C   -0.510944
    27  H    0.196066
    28  H    0.174029
    29  H    0.153766
 Sum of Mulliken charges =  -0.00000
 Mulliken charges with hydrogens summed into heavy atoms:
               1
     1  O   -0.362597
     2  O   -0.377373
     3  N    0.058685
     5  C   -0.066917
     6  C    0.274794
     7  C    0.175689
     8  C    0.157147
     9  C    0.023945
    12  C   -0.143181
    13  C    0.160848
    14  C    0.068035
    18  C    0.020149
    22  C   -0.002140
    26  C    0.012917
 Electronic spatial extent (au):  <R**2>=           3198.9555
 Charge=              0.0000 electrons
 Dipole moment (field-independent basis, Debye):
    X=              3.9854    Y=              7.4164    Z=              0.0591  Tot=              8.4197
 Quadrupole moment (field-independent basis, Debye-Ang):
   XX=            -97.9953   YY=            -78.2599   ZZ=            -84.9099
   XY=             12.2444   XZ=              4.3082   YZ=             -2.1085
 Traceless Quadrupole moment (field-independent basis, Debye-Ang):
   XX=            -10.9402   YY=              8.7951   ZZ=              2.1451
   XY=             12.2444   XZ=              4.3082   YZ=             -2.1085
 Octapole moment (field-independent basis, Debye-Ang**2):
  XXX=            109.2894  YYY=             63.5805  ZZZ=              1.4581  XYY=            -34.5552
  XXY=             31.3158  XXZ=             -5.9061  XZZ=              0.8656  YZZ=             -1.3228
  YYZ=              4.4102  XYZ=             -5.1905
 Hexadecapole moment (field-independent basis, Debye-Ang**3):
 XXXX=          -3054.3910 YYYY=          -1288.4953 ZZZZ=           -145.3457 XXXY=             32.6983
 XXXZ=             47.7804 YYYX=             87.2189 YYYZ=            -20.0609 ZZZX=             -3.5847
 ZZZY=              2.9652 XXYY=           -689.9203 XXZZ=           -480.5326 YYZZ=           -244.4498
 XXYZ=             -9.3819 YYXZ=              8.9778 ZZXY=             -0.4612
 N-N= 8.999442327145D+02 E-N=-3.275901835780D+03  KE= 6.306983281927D+02
 Leave Link  601 at Fri Jan 23 15:41:54 2026, MaxMem=  2147483648 cpu:               0.7 elap:               0.1
 (Enter /data/home/wyx/g16/l9999.exe)
 Electronic transition elements 
                 1             2             3             4             5 
      1  -0.633211D+03 -0.633178D+03 -0.633172D+03 -0.633143D+03 -0.633127D+03
      2   0.158917D+01 -0.341321D-01 -0.842662D-01 -0.386283D+00  0.446228D+00
      3   0.371019D+00 -0.471922D-01  0.940212D-01  0.169490D+01 -0.146363D+01
      4   0.124793D+00  0.349511D-01 -0.377792D-01 -0.139387D+00  0.753593D-01
      5  -0.170917D+00  0.415664D-02  0.120363D-01  0.617460D-01 -0.855137D-01
      6  -0.434806D-01  0.711665D-02 -0.125578D-01 -0.294793D+00  0.283472D+00
      7  -0.127196D-01 -0.207589D-02  0.218501D-02  0.206332D-01 -0.155932D-01
      8  -0.117469D+00  0.798796D+00  0.524216D+00 -0.480714D-01  0.128286D+00
      9  -0.147428D-01  0.155380D+00 -0.860292D+00  0.604425D-01 -0.477002D-01
     10   0.146778D+01 -0.714837D-01 -0.143909D+00 -0.770823D-01  0.300233D+00
     11  -0.168100D+00  0.332580D-01  0.136697D-01  0.118647D+01 -0.537809D+00
     12   0.253352D+00 -0.169193D-01 -0.399162D-01 -0.150464D+00  0.345311D+00
     13  -0.145011D-01 -0.123503D-01  0.329039D-01 -0.142649D-01  0.427244D-01
     14   0.469531D+00 -0.176243D-01 -0.571518D-01  0.444569D+00 -0.617772D-01
     15  -0.537200D-01 -0.129355D-01  0.566284D-01  0.446353D-01 -0.914506D-02
     16   0.207820D-01  0.769549D-01  0.254560D-01  0.586555D-01  0.231356D-01
                 6 
      1  -0.633110D+03
      2   0.595062D-01
      3  -0.217891D+00
      4  -0.403655D-01
      5  -0.131393D-01
      6   0.448169D-01
      7   0.287575D-01
      8  -0.312553D-01
      9   0.175837D-02
     10  -0.340517D-01
     11   0.163953D+00
     12   0.150837D+00
     13  -0.132038D+00
     14  -0.128257D-02
     15   0.398113D-01
     16  -0.108658D+00
 1\1\GINC-CN012\SP\RCAM-B3LYP TD-FC\TZVP\C11H15N1O2\WYX\23-Jan-2026\0\\
 #p CAM-B3LYP TZVP em=gd3bj td(Eqsolv,nstates=6,root=1) scrf=(Solvent=T
 etraHydroFuran) Geom=Check Guess=Read\\Title Card Required\\0,1\O,0,2.
 838809,-1.571128,0.068736\O,0,-3.427353,-1.641177,-0.082262\N,0,-0.656
 723,1.516031,-0.234645\H,0,-0.967862,2.475653,-0.285417\C,0,-1.245636,
 -0.761057,-0.207138\C,0,0.684977,1.325013,-0.046062\C,0,-1.630886,0.56
 9721,-0.253025\C,0,-2.215241,-1.841272,-0.160243\C,0,0.201203,-1.09032
 ,-0.234406\H,0,0.423308,-1.907329,0.457948\H,0,0.464529,-1.536889,-1.2
 08585\C,0,1.148518,0.025151,0.026423\C,0,2.516735,-0.399667,0.285161\C
 ,0,-3.018943,1.100641,-0.335118\H,0,-3.018592,2.178649,-0.487134\H,0,-
 3.570426,0.636659,-1.14645\H,0,-3.576381,0.883996,0.571943\C,0,-1.7157
 91,-3.260995,-0.186936\H,0,-2.536482,-3.926766,-0.429515\H,0,-0.91224,
 -3.417795,-0.900131\H,0,-1.332299,-3.547828,0.791364\C,0,3.557068,0.53
 1983,0.857866\H,0,4.065357,1.075725,0.059011\H,0,3.145927,1.257569,1.5
 5484\H,0,4.299723,-0.077657,1.367788\C,0,1.468398,2.593322,0.027373\H,
 0,1.662978,2.895519,1.056446\H,0,2.423192,2.50674,-0.478761\H,0,0.9241
 31,3.407506,-0.449071\\Version=ES64L-G16RevA.03\State=1-A\HF=-633.3239
 476\RMSD=3.063e-09\PG=C01 [X(C11H15N1O2)]\\@


 IT TAKES GREATER CHARACTER TO CARRY OFF GOOD FORTUNE THAN BAD.
                     FRENCH PROVERB.
 Job cpu time:       0 days  0 hours 35 minutes 53.2 seconds.
 Elapsed time:       0 days  0 hours  2 minutes 15.5 seconds.
 File lengths (MBytes):  RWF=    736 Int=      0 D2E=      0 Chk=     67 Scr=      1
 Normal termination of Gaussian 16 at Fri Jan 23 15:41:56 2026.
