 Entering Gaussian System, Link 0=g16
 Input=DDL-S2-cLR-gs-14.gjf
 Output=DDL-S2-cLR-gs-14.log
 Initial command:
 /data/home/wyx/g16/l1.exe "/scr/tmp/wyx/13106/Gau-1988651.inp" -scrdir="/scr/tmp/wyx/13106/"
 Entering Link 1 = /data/home/wyx/g16/l1.exe PID=   1988652.
  
 Copyright (c) 1988,1990,1992,1993,1995,1998,2003,2009,2016,
            Gaussian, Inc.  All Rights Reserved.
  
 This is part of the Gaussian(R) 16 program.  It is based on
 the Gaussian(R) 09 system (copyright 2009, Gaussian, Inc.),
 the Gaussian(R) 03 system (copyright 2003, Gaussian, Inc.),
 the Gaussian(R) 98 system (copyright 1998, Gaussian, Inc.),
 the Gaussian(R) 94 system (copyright 1995, Gaussian, Inc.),
 the Gaussian 92(TM) system (copyright 1992, Gaussian, Inc.),
 the Gaussian 90(TM) system (copyright 1990, Gaussian, Inc.),
 the Gaussian 88(TM) system (copyright 1988, Gaussian, Inc.),
 the Gaussian 86(TM) system (copyright 1986, Carnegie Mellon
 University), and the Gaussian 82(TM) system (copyright 1983,
 Carnegie Mellon University). Gaussian is a federally registered
 trademark of Gaussian, Inc.
  
 This software contains proprietary and confidential information,
 including trade secrets, belonging to Gaussian, Inc.
  
 This software is provided under written license and may be
 used, copied, transmitted, or stored only in accord with that
 written license.
  
 The following legend is applicable only to US Government
 contracts under FAR:
  
                    RESTRICTED RIGHTS LEGEND
  
 Use, reproduction and disclosure by the US Government is
 subject to restrictions as set forth in subparagraphs (a)
 and (c) of the Commercial Computer Software - Restricted
 Rights clause in FAR 52.227-19.
  
 Gaussian, Inc.
 340 Quinnipiac St., Bldg. 40, Wallingford CT 06492
  
  
 ---------------------------------------------------------------
 Warning -- This program may not be used in any manner that
 competes with the business of Gaussian, Inc. or will provide
 assistance to any competitor of Gaussian, Inc.  The licensee
 of this program is prohibited from giving any competitor of
 Gaussian, Inc. access to this program.  By using this program,
 the user acknowledges that Gaussian, Inc. is engaged in the
 business of creating and licensing software in the field of
 computational chemistry and represents and warrants to the
 licensee that it is not a competitor of Gaussian, Inc. and that
 it will not use this program in any manner prohibited above.
 ---------------------------------------------------------------
  

 Cite this work as:
 Gaussian 16, Revision A.03,
 M. J. Frisch, G. W. Trucks, H. B. Schlegel, G. E. Scuseria, 
 M. A. Robb, J. R. Cheeseman, G. Scalmani, V. Barone, 
 G. A. Petersson, H. Nakatsuji, X. Li, M. Caricato, A. V. Marenich, 
 J. Bloino, B. G. Janesko, R. Gomperts, B. Mennucci, H. P. Hratchian, 
 J. V. Ortiz, A. F. Izmaylov, J. L. Sonnenberg, D. Williams-Young, 
 F. Ding, F. Lipparini, F. Egidi, J. Goings, B. Peng, A. Petrone, 
 T. Henderson, D. Ranasinghe, V. G. Zakrzewski, J. Gao, N. Rega, 
 G. Zheng, W. Liang, M. Hada, M. Ehara, K. Toyota, R. Fukuda, 
 J. Hasegawa, M. Ishida, T. Nakajima, Y. Honda, O. Kitao, H. Nakai, 
 T. Vreven, K. Throssell, J. A. Montgomery, Jr., J. E. Peralta, 
 F. Ogliaro, M. J. Bearpark, J. J. Heyd, E. N. Brothers, K. N. Kudin, 
 V. N. Staroverov, T. A. Keith, R. Kobayashi, J. Normand, 
 K. Raghavachari, A. P. Rendell, J. C. Burant, S. S. Iyengar, 
 J. Tomasi, M. Cossi, J. M. Millam, M. Klene, C. Adamo, R. Cammi, 
 J. W. Ochterski, R. L. Martin, K. Morokuma, O. Farkas, 
 J. B. Foresman, and D. J. Fox, Gaussian, Inc., Wallingford CT, 2016.
 
 ******************************************
 Gaussian 16:  ES64L-G16RevA.03 25-Dec-2016
                23-Jan-2026 
 ******************************************
 %nprocshared=16
 Will use up to   16 processors via shared memory.
 %mem=16GB
 %oldchk=DDL-S2-cLR-14.chk
 %chk=DDL-S2-cLR-gs-14.chk
 Copying data from "DDL-S2-cLR-14.chk" to current chk file "DDL-S2-cLR-gs-14.chk"
 IOpt=  2 FromEx=T IUOpen= 4 IOptOp= 5 NList=   0 IFRang= 0 IUIn= 4 IUOut= 2.
 ----------------------------------------------------------------------
 #p CAM-B3LYP TZVP em=gd3bj scrf=(Solvent=TetraHydroFuran,NonEquilibriu
 m=Read) Geom=Check Guess=Read
 ----------------------------------------------------------------------
 1/29=2,38=1,172=1/1;
 2/12=2,40=1/2;
 3/5=19,7=101,11=2,14=-4,25=1,30=1,70=6002201,72=20,74=-40,116=-2,124=41/1,2,3;
 4/5=1/1;
 5/5=2,38=6,53=20/2;
 6/7=2,8=2,9=2,10=2,28=1/1;
 99/5=1,9=1/99;
 Leave Link    1 at Fri Jan 23 22:53:44 2026, MaxMem=  2147483648 cpu:               0.8 elap:               0.1
 (Enter /data/home/wyx/g16/l101.exe)
 -------------------
 Title Card Required
 -------------------
 Structure from the checkpoint file:  "DDL-S2-cLR-gs-14.chk"
 Charge =  0 Multiplicity = 1
 Z-Matrix found in chk file.
 O,0,2.835325,-1.564727,0.151062
 O,0,-3.419382,-1.621129,0.074814
 N,0,-0.635023,1.510422,-0.364906
 H,0,-0.943978,2.467738,-0.419095
 C,0,-1.237575,-0.75755,-0.223371
 C,0,0.701128,1.299455,-0.105661
 C,0,-1.611317,0.546648,-0.292429
 C,0,-2.22378,-1.828409,-0.10016
 C,0,0.219739,-1.111762,-0.35379
 H,0,0.467803,-1.956362,0.28668
 H,0,0.438047,-1.468115,-1.370088
 C,0,1.151411,0.02257,-0.013629
 C,0,2.512662,-0.393772,0.325538
 C,0,-3.002158,1.088073,-0.297785
 H,0,-3.004832,2.141752,-0.574133
 H,0,-3.636378,0.537489,-0.984702
 H,0,-3.457201,0.988603,0.685913
 C,0,-1.730135,-3.249197,-0.190404
 H,0,-2.579625,-3.920189,-0.269346
 H,0,-1.067446,-3.397565,-1.041172
 H,0,-1.16258,-3.510819,0.703151
 C,0,3.531918,0.543463,0.927016
 H,0,4.046737,1.099008,0.141193
 H,0,3.097844,1.25847,1.621044
 H,0,4.271857,-0.062626,1.44439
 C,0,1.468101,2.577239,0.033913
 H,0,1.520537,2.892581,1.076482
 H,0,2.477723,2.497665,-0.348671
 H,0,0.970578,3.371046,-0.521857
 Recover connectivity data from disk.
 ITRead=  0  0  0  0  0  0  0  0  0  0  0  0  0  0  0  0  0  0  0  0
 ITRead=  0  0  0  0  0  0  0  0  0
 MicOpt= -1 -1 -1 -1 -1 -1 -1 -1 -1 -1 -1 -1 -1 -1 -1 -1 -1 -1 -1 -1
 MicOpt= -1 -1 -1 -1 -1 -1 -1 -1 -1
 NAtoms=     29 NQM=       29 NQMF=       0 NMMI=      0 NMMIF=      0
                NMic=       0 NMicF=      0.
                    Isotopes and Nuclear Properties:
 (Nuclear quadrupole moments (NQMom) in fm**2, nuclear magnetic moments (NMagM)
  in nuclear magnetons)

  Atom         1           2           3           4           5           6           7           8           9          10
 IAtWgt=          16          16          14           1          12          12          12          12          12           1
 AtmWgt=  15.9949146  15.9949146  14.0030740   1.0078250  12.0000000  12.0000000  12.0000000  12.0000000  12.0000000   1.0078250
 NucSpn=           0           0           2           1           0           0           0           0           0           1
 AtZEff=   5.6000000   5.6000000   4.5500000   1.0000000   3.6000000   3.6000000   3.6000000   3.6000000   3.6000000   1.0000000
 NQMom=    0.0000000   0.0000000   2.0440000   0.0000000   0.0000000   0.0000000   0.0000000   0.0000000   0.0000000   0.0000000
 NMagM=    0.0000000   0.0000000   0.4037610   2.7928460   0.0000000   0.0000000   0.0000000   0.0000000   0.0000000   2.7928460
 AtZNuc=   8.0000000   8.0000000   7.0000000   1.0000000   6.0000000   6.0000000   6.0000000   6.0000000   6.0000000   1.0000000

  Atom        11          12          13          14          15          16          17          18          19          20
 IAtWgt=           1          12          12          12           1           1           1          12           1           1
 AtmWgt=   1.0078250  12.0000000  12.0000000  12.0000000   1.0078250   1.0078250   1.0078250  12.0000000   1.0078250   1.0078250
 NucSpn=           1           0           0           0           1           1           1           0           1           1
 AtZEff=   1.0000000   3.6000000   3.6000000   3.6000000   1.0000000   1.0000000   1.0000000   3.6000000   1.0000000   1.0000000
 NQMom=    0.0000000   0.0000000   0.0000000   0.0000000   0.0000000   0.0000000   0.0000000   0.0000000   0.0000000   0.0000000
 NMagM=    2.7928460   0.0000000   0.0000000   0.0000000   2.7928460   2.7928460   2.7928460   0.0000000   2.7928460   2.7928460
 AtZNuc=   1.0000000   6.0000000   6.0000000   6.0000000   1.0000000   1.0000000   1.0000000   6.0000000   1.0000000   1.0000000

  Atom        21          22          23          24          25          26          27          28          29
 IAtWgt=           1          12           1           1           1          12           1           1           1
 AtmWgt=   1.0078250  12.0000000   1.0078250   1.0078250   1.0078250  12.0000000   1.0078250   1.0078250   1.0078250
 NucSpn=           1           0           1           1           1           0           1           1           1
 AtZEff=   1.0000000   3.6000000   1.0000000   1.0000000   1.0000000   3.6000000   1.0000000   1.0000000   1.0000000
 NQMom=    0.0000000   0.0000000   0.0000000   0.0000000   0.0000000   0.0000000   0.0000000   0.0000000   0.0000000
 NMagM=    2.7928460   0.0000000   2.7928460   2.7928460   2.7928460   0.0000000   2.7928460   2.7928460   2.7928460
 AtZNuc=   1.0000000   6.0000000   1.0000000   1.0000000   1.0000000   6.0000000   1.0000000   1.0000000   1.0000000
 Leave Link  101 at Fri Jan 23 22:53:48 2026, MaxMem=  2147483648 cpu:               0.9 elap:               0.1
 (Enter /data/home/wyx/g16/l202.exe)
                          Input orientation:                          
 ---------------------------------------------------------------------
 Center     Atomic      Atomic             Coordinates (Angstroms)
 Number     Number       Type             X           Y           Z
 ---------------------------------------------------------------------
      1          8           0        2.835325   -1.564727    0.151062
      2          8           0       -3.419382   -1.621129    0.074814
      3          7           0       -0.635023    1.510422   -0.364906
      4          1           0       -0.943978    2.467738   -0.419095
      5          6           0       -1.237575   -0.757550   -0.223371
      6          6           0        0.701128    1.299455   -0.105661
      7          6           0       -1.611317    0.546648   -0.292429
      8          6           0       -2.223780   -1.828409   -0.100160
      9          6           0        0.219739   -1.111762   -0.353790
     10          1           0        0.467803   -1.956362    0.286680
     11          1           0        0.438047   -1.468115   -1.370088
     12          6           0        1.151411    0.022570   -0.013629
     13          6           0        2.512662   -0.393772    0.325538
     14          6           0       -3.002158    1.088073   -0.297785
     15          1           0       -3.004832    2.141752   -0.574133
     16          1           0       -3.636378    0.537489   -0.984702
     17          1           0       -3.457201    0.988603    0.685913
     18          6           0       -1.730135   -3.249197   -0.190404
     19          1           0       -2.579625   -3.920189   -0.269346
     20          1           0       -1.067446   -3.397565   -1.041172
     21          1           0       -1.162580   -3.510819    0.703151
     22          6           0        3.531918    0.543463    0.927016
     23          1           0        4.046737    1.099008    0.141193
     24          1           0        3.097844    1.258470    1.621044
     25          1           0        4.271857   -0.062626    1.444390
     26          6           0        1.468101    2.577239    0.033913
     27          1           0        1.520537    2.892581    1.076482
     28          1           0        2.477723    2.497665   -0.348671
     29          1           0        0.970578    3.371046   -0.521857
 ---------------------------------------------------------------------
                    Distance matrix (angstroms):
                    1          2          3          4          5
     1  O    0.000000
     2  O    6.255426   0.000000
     3  N    4.665413   4.213386   0.000000
     4  H    5.555986   4.805248   1.007394   0.000000
     5  C    4.168963   2.365368   2.350914   3.244532   0.000000
     6  C    3.581095   5.053809   1.377322   2.041935   2.829080
     7  C    4.942389   2.846616   1.373777   2.037639   1.358449
     8  C    5.072197   1.225987   3.707025   4.494051   1.461000
     9  C    2.702100   3.699508   2.758005   3.764482   1.505403
    10  H    2.403525   3.907362   3.695860   4.697223   2.146070
    11  H    2.840805   4.122004   3.321679   4.278472   2.151179
    12  C    2.319957   4.858160   2.351265   3.245598   2.521871
    13  C    1.227065   6.062872   3.743072   4.548745   3.807613
    14  C    6.427676   2.766348   2.405455   2.480785   2.554528
    15  H    6.954950   3.840867   2.461371   2.092229   3.413529
    16  H    6.898711   2.414393   3.215412   3.360772   2.830372
    17  H    6.811860   2.680592   3.056338   3.118521   2.966915
    18  C    4.878264   2.361038   4.887095   5.775265   2.540080
    19  H    5.920019   2.471703   5.769068   6.595709   3.435913
    20  H    4.473515   3.151627   4.973194   5.899492   2.769011
    21  H    4.480549   3.009799   5.160613   6.086901   2.905952
    22  C    2.351980   7.330230   4.468497   5.054552   5.075834
    23  H    2.926278   7.946476   4.726973   5.205245   5.612813
    24  H    3.193776   7.290895   4.235773   4.686237   5.124652
    25  H    2.447985   7.966168   5.461273   6.089356   5.798119
    26  C    4.363360   6.443249   2.391712   2.456691   4.302057
    27  H    4.738424   6.766071   2.938435   2.913945   4.756076
    28  H    4.108606   7.205529   3.265593   3.422556   4.941211
    29  H    5.319018   6.674547   2.462623   2.119446   4.691518
                    6          7          8          9         10
     6  C    0.000000
     7  C    2.439058   0.000000
     8  C    4.282365   2.460279   0.000000
     9  C    2.471289   2.471205   2.559042   0.000000
    10  H    3.287661   3.305021   2.722248   1.088617   0.000000
    11  H    3.054084   3.069285   2.971170   1.098866   1.727469
    12  C    1.357078   2.825784   3.850393   1.506795   2.115107
    13  C    2.516864   4.274749   4.967221   2.496896   2.573839
    14  C    3.714286   1.492517   3.025028   3.901670   4.653043
    15  H    3.829239   2.136726   4.073926   4.586040   5.440104
    16  H    4.490798   2.140140   2.894015   4.241193   4.967898
    17  H    4.244398   2.135361   3.174082   4.360321   4.923196
    18  C    5.158339   3.799074   1.506807   2.897815   2.594217
    19  H    6.167237   4.570644   2.128566   3.966211   3.667778
    20  H    5.105392   4.051324   2.164454   2.711869   2.489427
    21  H    5.221716   4.201855   2.145217   2.963681   2.290837
    22  C    3.106657   5.285823   6.309432   3.918005   4.005990
    23  H    3.360687   5.701465   6.924406   4.447294   4.707995
    24  H    2.954224   5.132667   6.388352   4.219177   4.362658
    25  H    4.124079   6.164373   6.906296   4.555634   4.404243
    26  C    1.496817   3.703055   5.749582   3.913751   4.649519
    27  H    2.146379   4.145579   6.139393   4.446630   5.024369
    28  H    2.156630   4.530991   6.393810   4.257521   4.927657
    29  H    2.130097   3.833542   6.116869   4.548359   5.411820
                   11         12         13         14         15
    11  H    0.000000
    12  C    2.137992   0.000000
    13  C    2.886761   1.463345   0.000000
    14  C    4.418025   4.297462   5.744357   0.000000
    15  H    5.051544   4.698878   6.138488   1.089319   0.000000
    16  H    4.557621   4.912336   6.355680   1.085004   1.772308
    17  H    5.043368   4.760450   6.138411   1.088403   1.766948
    18  C    3.043833   4.363372   5.140134   4.521226   5.552876
    19  H    4.041119   5.434277   6.222611   5.026135   6.084474
    20  H    2.469306   4.204342   4.869070   4.941324   5.886903
    21  H    3.321591   4.284059   4.833837   5.053289   6.080864
    22  C    4.346858   2.612079   1.509658   6.670149   6.894714
    23  H    4.679395   3.092831   2.148432   7.062559   7.164051
    24  H    4.843104   2.826341   2.179605   6.396950   6.545353
    25  H    4.959313   3.445325   2.110984   7.567733   7.866633
    26  C    4.404216   2.574662   3.162761   4.723437   4.535030
    27  H    5.115971   3.092177   3.514021   5.059608   4.875165
    28  H    4.575039   2.827977   2.969206   5.658501   5.498720
    29  H    4.941717   3.391650   4.155714   4.587462   4.161464
                   16         17         18         19         20
    16  H    0.000000
    17  H    1.739702   0.000000
    18  C    4.313196   4.659360   0.000000
    19  H    4.636740   5.077292   1.085401   0.000000
    20  H    4.699707   5.285094   1.088566   1.776383   0.000000
    21  H    5.035605   5.050780   1.090415   1.766734   1.750583
    22  C    7.418839   7.007429   6.581953   7.662012   6.368643
    23  H    7.785448   7.524493   7.238031   8.322833   6.911731
    24  H    7.256685   6.626908   6.849072   7.913643   6.790854
    25  H    8.294625   7.837009   6.989327   8.047390   6.768160
    26  C    5.590515   5.216078   6.650292   7.661111   6.578988
    27  H    6.032306   5.343740   7.063519   8.064516   7.123767
    28  H    6.452058   6.210552   7.124433   8.171408   6.913864
    29  H    5.428380   5.171070   7.157606   8.113557   7.087829
                   21         22         23         24         25
    21  H    0.000000
    22  C    6.206902   0.000000
    23  H    6.978774   1.091415   0.000000
    24  H    6.460639   1.086890   1.765159   0.000000
    25  H    6.478625   1.087442   1.760226   1.776178   0.000000
    26  C    6.665794   3.032032   2.974229   2.629486   4.101144
    27  H    6.952843   3.096183   3.236256   2.335544   4.054426
    28  H    7.103521   2.560783   2.158243   2.408305   3.604036
    29  H    7.308288   4.081044   3.881307   3.685141   5.153123
                   26         27         28         29
    26  C    0.000000
    27  H    1.090477   0.000000
    28  H    1.082608   1.761597   0.000000
    29  H    1.089284   1.756722   1.750507   0.000000
 Stoichiometry    C11H15NO2
 Framework group  C1[X(C11H15NO2)]
 Deg. of freedom    81
 Full point group                 C1      NOp   1
 RotChk:  IX=0 Diff= 1.07D-16
 Largest Abelian subgroup         C1      NOp   1
 Largest concise Abelian subgroup C1      NOp   1
                         Standard orientation:                         
 ---------------------------------------------------------------------
 Center     Atomic      Atomic             Coordinates (Angstroms)
 Number     Number       Type             X           Y           Z
 ---------------------------------------------------------------------
      1          8           0        2.288081   -2.277711   -0.196038
      2          8           0       -3.594113   -0.246142    0.438690
      3          7           0        0.025082    1.801877   -0.239298
      4          1           0        0.053309    2.808866   -0.234841
      5          6           0       -1.289834   -0.140792   -0.084918
      6          6           0        1.230518    1.143187   -0.138969
      7          6           0       -1.206753    1.215104   -0.079479
      8          6           0       -2.562034   -0.828142    0.123833
      9          6           0       -0.057878   -0.950820   -0.388855
     10          1           0       -0.047014   -1.867236    0.198639
     11          1           0       -0.074361   -1.296806   -1.431702
     12          6           0        1.230582   -0.213859   -0.129642
     13          6           0        2.398175   -1.079051    0.042250
     14          6           0       -2.326795    2.187495    0.086562
     15          1           0       -2.001343    3.196868   -0.162161
     16          1           0       -3.174278    1.922136   -0.536809
     17          1           0       -2.688890    2.185215    1.112964
     18          6           0       -2.587962   -2.323920   -0.056288
     19          1           0       -3.617350   -2.668087   -0.054220
     20          1           0       -2.101880   -2.632043   -0.980279
     21          1           0       -2.056320   -2.813370    0.760291
     22          6           0        3.728052   -0.572643    0.546280
     23          1           0        4.319516   -0.173091   -0.279381
     24          1           0        3.631558    0.202283    1.302261
     25          1           0        4.267644   -1.420660    0.961295
     26          6           0        2.393291    2.082156   -0.056773
     27          1           0        2.652015    2.297908    0.980364
     28          1           0        3.273754    1.694851   -0.553581
     29          1           0        2.140148    3.028563   -0.532979
 ---------------------------------------------------------------------
 Rotational constants (GHZ):           1.0789286           0.4907179           0.3467318
 Leave Link  202 at Fri Jan 23 22:53:48 2026, MaxMem=  2147483648 cpu:               0.0 elap:               0.0
 (Enter /data/home/wyx/g16/l301.exe)
 Standard basis: TZVP (5D, 7F)
 Ernie: Thresh=  0.10000D-02 Tol=  0.10000D-05 Strict=F.
 There are   370 symmetry adapted cartesian basis functions of A   symmetry.
 There are   356 symmetry adapted basis functions of A   symmetry.
   356 basis functions,   610 primitive gaussians,   370 cartesian basis functions
    52 alpha electrons       52 beta electrons
       nuclear repulsion energy       900.8138784471 Hartrees.
 IExCor=20419 DFT=T Ex+Corr=CAM-B3LYP ExCW=0 ScaHFX=  1.000000
 ScaDFX=  1.000000  1.000000  1.000000  0.810000 ScalE2=  1.000000  1.000000
 IRadAn=      5 IRanWt=     -1 IRanGd=            0 ICorTp=0 IEmpDi=141
 HFx  wShort=  0.000000 wLong=  0.330000 cFull=  0.190000 cShort=  0.000000 cLong=  0.460000
 DFx  wShort=  0.000000 wLong=  0.330000 cFull=  0.190000 cShort=  0.000000 cLong=  0.460000
 NAtoms=   29 NActive=   29 NUniq=   29 SFac= 1.00D+00 NAtFMM=   60 NAOKFM=F Big=F
 Integral buffers will be    131072 words long.
 Raffenetti 2 integral format.
 Two-electron integral symmetry is turned on.
 R6Disp:  Grimme-D3(BJ) Dispersion energy=       -0.0262051921 Hartrees.
 Nuclear repulsion after empirical dispersion term =      900.7876732550 Hartrees.
 ------------------------------------------------------------------------------
 Polarizable Continuum Model (PCM)
 =================================
 Model                : PCM.
 Atomic radii         : UFF (Universal Force Field).
 Polarization charges : Total charges.
 Charge compensation  : None.
 Solution method      : On-the-fly selection.
 Cavity type          : Scaled VdW (van der Waals Surface) (Alpha=1.100).
 Cavity algorithm     : GePol (No added spheres)
                        Default sphere list used, NSphG=   29.
                        Lebedev-Laikov grids with approx.  5.0 points / Ang**2.
                        Smoothing algorithm: York/Karplus (Gamma=1.0000).
                        Polarization charges: spherical gaussians, with
                                              point-specific exponents (IZeta= 3).
                        Self-potential: point-specific (ISelfS= 7).
                        Self-field    : sphere-specific E.n sum rule (ISelfD= 2).
 Solvent              : TetraHydroFuran, Eps=   7.425700 Eps(inf)=   1.974025
 ------------------------------------------------------------------------------
 GePol: Number of generator spheres                  =      29
 GePol: Total number of spheres                      =      29
 GePol: Number of exposed spheres                    =      29 (100.00%)
 GePol: Number of points                             =    2103
 GePol: Average weight of points                     =       0.13
 GePol: Minimum weight of points                     =   0.18D-10
 GePol: Maximum weight of points                     =    0.20577
 GePol: Number of points with low weight             =     164
 GePol: Fraction of low-weight points (<1% of avg)   =       7.80%
 GePol: Cavity surface area                          =    268.633 Ang**2
 GePol: Cavity volume                                =    286.670 Ang**3
 Leave Link  301 at Fri Jan 23 22:53:48 2026, MaxMem=  2147483648 cpu:               0.6 elap:               0.0
 (Enter /data/home/wyx/g16/l302.exe)
 NPDir=0 NMtPBC=     1 NCelOv=     1 NCel=       1 NClECP=     1 NCelD=      1
         NCelK=      1 NCelE2=     1 NClLst=     1 CellRange=     0.0.
 One-electron integrals computed using PRISM.
 One-electron integral symmetry used in STVInt
 NBasis=   356 RedAO= T EigKep=  4.72D-05  NBF=   356
 NBsUse=   356 1.00D-06 EigRej= -1.00D+00 NBFU=   356
 Precomputing XC quadrature grid using
 IXCGrd= 4 IRadAn=           5 IRanWt=          -1 IRanGd=           0 AccXCQ= 0.00D+00.
 Generated NRdTot=       0 NPtTot=           0 NUsed=           0 NTot=          32
 NSgBfM=   366   366   366   366   366 MxSgAt=    29 MxSgA2=    29.
 Leave Link  302 at Fri Jan 23 22:53:48 2026, MaxMem=  2147483648 cpu:               3.1 elap:               0.2
 (Enter /data/home/wyx/g16/l303.exe)
 DipDrv:  MaxL=1.
 Leave Link  303 at Fri Jan 23 22:53:48 2026, MaxMem=  2147483648 cpu:               0.6 elap:               0.0
 (Enter /data/home/wyx/g16/l401.exe)
 Initial guess from the checkpoint file:  "DDL-S2-cLR-gs-14.chk"
 B after Tr=     0.000000    0.000000    0.000000
         Rot=    1.000000    0.000000   -0.000000   -0.000000 Ang=   0.00 deg.
 Guess basis will be translated and rotated to current coordinates.
 JPrj=2 DoOrth=T DoCkMO=T.
 Leave Link  401 at Fri Jan 23 22:53:49 2026, MaxMem=  2147483648 cpu:               2.2 elap:               0.2
 (Enter /data/home/wyx/g16/l502.exe)
 Integral symmetry usage will be decided dynamically.
 Closed shell SCF:
 Using DIIS extrapolation, IDIIS=  1040.
 NGot=  2147483648 LenX=  2147200095 LenY=  2147062754
 Requested convergence on RMS density matrix=1.00D-08 within 128 cycles.
 Requested convergence on MAX density matrix=1.00D-06.
 Requested convergence on             energy=1.00D-06.
 No special actions if energy rises.
 Fock matrices will be formed incrementally for  20 cycles.

 Cycle   1  Pass 1  IDiag  1:
 FoFJK:  IHMeth= 1 ICntrl=       0 DoSepK=T KAlg= 0 I1Cent=           0 FoldK=F
 IRaf=         1 NMat=       1 IRICut=       1 DoRegI=T DoRafI=F ISym2E= 0 IDoP0=0 IntGTp=1.
 FoFCou: FMM=F IPFlag=           0 FMFlag=      100000 FMFlg1=           0
         NFxFlg=           0 DoJE=T BraDBF=F KetDBF=F FulRan=T
         wScrn=  0.000000 ICntrl=       500 IOpCl=  0 I1Cent=           0 NGrid=           0
         NMat0=    1 NMatS0=      1 NMatT0=    0 NMatD0=    1 NMtDS0=    0 NMtDT0=    0
 Symmetry not used in FoFCou.
 Inv3:  Mode=1 IEnd=    13267827.
 Iteration    1 A*A^-1 deviation from unit magnitude is 3.11D-15 for    196.
 Iteration    1 A*A^-1 deviation from orthogonality  is 1.93D-15 for   1845   1662.
 Iteration    1 A^-1*A deviation from unit magnitude is 3.11D-15 for    847.
 Iteration    1 A^-1*A deviation from orthogonality  is 2.17D-15 for   1410    970.
 NEqPCM:  Using non-equilibrium solvation (IEInf=1, Eps=   7.4257, EpsInf=   1.9740)
 Inv3:  Mode=1 IEnd=    13267827.
 Iteration    1 A*A^-1 deviation from unit magnitude is 2.78D-15 for    509.
 Iteration    1 A*A^-1 deviation from orthogonality  is 1.45D-15 for   1799    636.
 Iteration    1 A^-1*A deviation from unit magnitude is 2.89D-15 for    324.
 Iteration    1 A^-1*A deviation from orthogonality  is 1.79D-15 for   1323    425.
 E= -633.327398783209    
 DIIS: error= 4.36D-04 at cycle   1 NSaved=   1.
 NSaved= 1 IEnMin= 1 EnMin= -633.327398783209     IErMin= 1 ErrMin= 4.36D-04
 ErrMax= 4.36D-04  0.00D+00 EMaxC= 1.00D-01 BMatC= 4.41D-05 BMatP= 4.41D-05
 IDIUse=3 WtCom= 9.96D-01 WtEn= 4.36D-03
 Coeff-Com:  0.100D+01
 Coeff-En:   0.100D+01
 Coeff:      0.100D+01
 Gap=     0.238 Goal=   None    Shift=    0.000
 RMSDP=2.57D-04 MaxDP=1.25D-02              OVMax= 7.15D-03

 Cycle   2  Pass 1  IDiag  1:
 RMSU=  2.55D-04    CP:  1.00D+00
 E= -633.327480007883     Delta-E=       -0.000081224674 Rises=F Damp=F
 DIIS: error= 3.28D-04 at cycle   2 NSaved=   2.
 NSaved= 2 IEnMin= 2 EnMin= -633.327480007883     IErMin= 2 ErrMin= 3.28D-04
 ErrMax= 3.28D-04  0.00D+00 EMaxC= 1.00D-01 BMatC= 4.15D-05 BMatP= 4.41D-05
 IDIUse=3 WtCom= 9.97D-01 WtEn= 3.28D-03
 Coeff-Com:  0.489D+00 0.511D+00
 Coeff-En:   0.000D+00 0.100D+01
 Coeff:      0.487D+00 0.513D+00
 Gap=     0.238 Goal=   None    Shift=    0.000
 RMSDP=6.77D-05 MaxDP=3.40D-03 DE=-8.12D-05 OVMax= 1.71D-03

 Cycle   3  Pass 1  IDiag  1:
 RMSU=  6.33D-05    CP:  1.00D+00  9.77D-01
 E= -633.327511838798     Delta-E=       -0.000031830915 Rises=F Damp=F
 DIIS: error= 1.27D-04 at cycle   3 NSaved=   3.
 NSaved= 3 IEnMin= 3 EnMin= -633.327511838798     IErMin= 3 ErrMin= 1.27D-04
 ErrMax= 1.27D-04  0.00D+00 EMaxC= 1.00D-01 BMatC= 5.69D-06 BMatP= 4.15D-05
 IDIUse=3 WtCom= 9.99D-01 WtEn= 1.27D-03
 Coeff-Com:  0.610D-01 0.249D+00 0.690D+00
 Coeff-En:   0.000D+00 0.885D-02 0.991D+00
 Coeff:      0.609D-01 0.249D+00 0.690D+00
 Gap=     0.238 Goal=   None    Shift=    0.000
 RMSDP=1.86D-05 MaxDP=9.36D-04 DE=-3.18D-05 OVMax= 1.02D-03

 Cycle   4  Pass 1  IDiag  1:
 RMSU=  1.44D-05    CP:  1.00D+00  9.98D-01  1.17D+00
 E= -633.327516624249     Delta-E=       -0.000004785451 Rises=F Damp=F
 DIIS: error= 3.58D-05 at cycle   4 NSaved=   4.
 NSaved= 4 IEnMin= 4 EnMin= -633.327516624249     IErMin= 4 ErrMin= 3.58D-05
 ErrMax= 3.58D-05  0.00D+00 EMaxC= 1.00D-01 BMatC= 4.10D-07 BMatP= 5.69D-06
 IDIUse=1 WtCom= 1.00D+00 WtEn= 0.00D+00
 Coeff-Com: -0.145D-01 0.226D-01 0.207D+00 0.785D+00
 Coeff:     -0.145D-01 0.226D-01 0.207D+00 0.785D+00
 Gap=     0.238 Goal=   None    Shift=    0.000
 RMSDP=1.21D-05 MaxDP=5.93D-04 DE=-4.79D-06 OVMax= 6.08D-04

 Cycle   5  Pass 1  IDiag  1:
 RMSU=  6.58D-06    CP:  1.00D+00  1.01D+00  1.31D+00  1.08D+00
 E= -633.327517194862     Delta-E=       -0.000000570613 Rises=F Damp=F
 DIIS: error= 1.42D-05 at cycle   5 NSaved=   5.
 NSaved= 5 IEnMin= 5 EnMin= -633.327517194862     IErMin= 5 ErrMin= 1.42D-05
 ErrMax= 1.42D-05  0.00D+00 EMaxC= 1.00D-01 BMatC= 1.14D-07 BMatP= 4.10D-07
 IDIUse=1 WtCom= 1.00D+00 WtEn= 0.00D+00
 Coeff-Com: -0.134D-01-0.277D-01-0.174D-02 0.360D+00 0.683D+00
 Coeff:     -0.134D-01-0.277D-01-0.174D-02 0.360D+00 0.683D+00
 Gap=     0.238 Goal=   None    Shift=    0.000
 RMSDP=4.72D-06 MaxDP=2.00D-04 DE=-5.71D-07 OVMax= 2.21D-04

 Cycle   6  Pass 1  IDiag  1:
 RMSU=  2.14D-06    CP:  1.00D+00  1.01D+00  1.36D+00  1.24D+00  1.07D+00
 E= -633.327517361235     Delta-E=       -0.000000166373 Rises=F Damp=F
 DIIS: error= 9.46D-06 at cycle   6 NSaved=   6.
 NSaved= 6 IEnMin= 6 EnMin= -633.327517361235     IErMin= 6 ErrMin= 9.46D-06
 ErrMax= 9.46D-06  0.00D+00 EMaxC= 1.00D-01 BMatC= 1.18D-08 BMatP= 1.14D-07
 IDIUse=1 WtCom= 1.00D+00 WtEn= 0.00D+00
 Coeff-Com: -0.949D-03-0.147D-01-0.236D-01 0.631D-02 0.191D+00 0.842D+00
 Coeff:     -0.949D-03-0.147D-01-0.236D-01 0.631D-02 0.191D+00 0.842D+00
 Gap=     0.238 Goal=   None    Shift=    0.000
 RMSDP=2.09D-06 MaxDP=7.53D-05 DE=-1.66D-07 OVMax= 1.77D-04

 Cycle   7  Pass 1  IDiag  1:
 RMSU=  9.54D-07    CP:  1.00D+00  1.01D+00  1.38D+00  1.30D+00  1.17D+00
                    CP:  1.21D+00
 E= -633.327517392893     Delta-E=       -0.000000031658 Rises=F Damp=F
 DIIS: error= 3.79D-06 at cycle   7 NSaved=   7.
 NSaved= 7 IEnMin= 7 EnMin= -633.327517392893     IErMin= 7 ErrMin= 3.79D-06
 ErrMax= 3.79D-06  0.00D+00 EMaxC= 1.00D-01 BMatC= 5.54D-09 BMatP= 1.18D-08
 IDIUse=1 WtCom= 1.00D+00 WtEn= 0.00D+00
 Coeff-Com:  0.222D-02-0.342D-02-0.793D-02-0.672D-01-0.784D-01 0.430D+00
 Coeff-Com:  0.725D+00
 Coeff:      0.222D-02-0.342D-02-0.793D-02-0.672D-01-0.784D-01 0.430D+00
 Coeff:      0.725D+00
 Gap=     0.238 Goal=   None    Shift=    0.000
 RMSDP=9.68D-07 MaxDP=4.15D-05 DE=-3.17D-08 OVMax= 8.91D-05

 Cycle   8  Pass 1  IDiag  1:
 RMSU=  3.60D-07    CP:  1.00D+00  1.01D+00  1.39D+00  1.33D+00  1.23D+00
                    CP:  1.41D+00  1.10D+00
 E= -633.327517402899     Delta-E=       -0.000000010006 Rises=F Damp=F
 DIIS: error= 1.34D-06 at cycle   8 NSaved=   8.
 NSaved= 8 IEnMin= 8 EnMin= -633.327517402899     IErMin= 8 ErrMin= 1.34D-06
 ErrMax= 1.34D-06  0.00D+00 EMaxC= 1.00D-01 BMatC= 5.42D-10 BMatP= 5.54D-09
 IDIUse=1 WtCom= 1.00D+00 WtEn= 0.00D+00
 Coeff-Com:  0.948D-03 0.379D-03 0.202D-02-0.224D-01-0.718D-01 0.103D-01
 Coeff-Com:  0.236D+00 0.844D+00
 Coeff:      0.948D-03 0.379D-03 0.202D-02-0.224D-01-0.718D-01 0.103D-01
 Coeff:      0.236D+00 0.844D+00
 Gap=     0.238 Goal=   None    Shift=    0.000
 RMSDP=4.06D-07 MaxDP=1.33D-05 DE=-1.00D-08 OVMax= 3.63D-05

 Cycle   9  Pass 1  IDiag  1:
 RMSU=  1.20D-07    CP:  1.00D+00  1.01D+00  1.39D+00  1.34D+00  1.24D+00
                    CP:  1.53D+00  1.29D+00  1.16D+00
 E= -633.327517404155     Delta-E=       -0.000000001256 Rises=F Damp=F
 DIIS: error= 5.24D-07 at cycle   9 NSaved=   9.
 NSaved= 9 IEnMin= 9 EnMin= -633.327517404155     IErMin= 9 ErrMin= 5.24D-07
 ErrMax= 5.24D-07  0.00D+00 EMaxC= 1.00D-01 BMatC= 6.30D-11 BMatP= 5.42D-10
 IDIUse=1 WtCom= 1.00D+00 WtEn= 0.00D+00
 Coeff-Com:  0.379D-04 0.499D-03 0.188D-02 0.296D-02-0.171D-01-0.580D-01
 Coeff-Com: -0.728D-02 0.321D+00 0.756D+00
 Coeff:      0.379D-04 0.499D-03 0.188D-02 0.296D-02-0.171D-01-0.580D-01
 Coeff:     -0.728D-02 0.321D+00 0.756D+00
 Gap=     0.238 Goal=   None    Shift=    0.000
 RMSDP=1.23D-07 MaxDP=5.90D-06 DE=-1.26D-09 OVMax= 1.15D-05

 Cycle  10  Pass 1  IDiag  1:
 RMSU=  5.21D-08    CP:  1.00D+00  1.01D+00  1.39D+00  1.34D+00  1.23D+00
                    CP:  1.55D+00  1.36D+00  1.26D+00  9.88D-01
 E= -633.327517404271     Delta-E=       -0.000000000116 Rises=F Damp=F
 DIIS: error= 1.33D-07 at cycle  10 NSaved=  10.
 NSaved=10 IEnMin=10 EnMin= -633.327517404271     IErMin=10 ErrMin= 1.33D-07
 ErrMax= 1.33D-07  0.00D+00 EMaxC= 1.00D-01 BMatC= 1.16D-11 BMatP= 6.30D-11
 IDIUse=1 WtCom= 1.00D+00 WtEn= 0.00D+00
 Coeff-Com: -0.703D-04 0.251D-03 0.254D-03 0.336D-02 0.920D-03-0.232D-01
 Coeff-Com: -0.253D-01 0.136D-01 0.291D+00 0.739D+00
 Coeff:     -0.703D-04 0.251D-03 0.254D-03 0.336D-02 0.920D-03-0.232D-01
 Coeff:     -0.253D-01 0.136D-01 0.291D+00 0.739D+00
 Gap=     0.238 Goal=   None    Shift=    0.000
 RMSDP=4.11D-08 MaxDP=1.38D-06 DE=-1.16D-10 OVMax= 2.89D-06

 Cycle  11  Pass 1  IDiag  1:
 RMSU=  1.58D-08    CP:  1.00D+00  1.01D+00  1.39D+00  1.34D+00  1.23D+00
                    CP:  1.56D+00  1.38D+00  1.29D+00  1.12D+00  1.09D+00
 E= -633.327517404284     Delta-E=       -0.000000000013 Rises=F Damp=F
 DIIS: error= 8.88D-08 at cycle  11 NSaved=  11.
 NSaved=11 IEnMin=11 EnMin= -633.327517404284     IErMin=11 ErrMin= 8.88D-08
 ErrMax= 8.88D-08  0.00D+00 EMaxC= 1.00D-01 BMatC= 2.28D-12 BMatP= 1.16D-11
 IDIUse=1 WtCom= 1.00D+00 WtEn= 0.00D+00
 Coeff-Com: -0.460D-04 0.792D-04-0.240D-03 0.132D-02 0.349D-02-0.132D-02
 Coeff-Com: -0.936D-02-0.514D-01 0.209D-01 0.341D+00 0.696D+00
 Coeff:     -0.460D-04 0.792D-04-0.240D-03 0.132D-02 0.349D-02-0.132D-02
 Coeff:     -0.936D-02-0.514D-01 0.209D-01 0.341D+00 0.696D+00
 Gap=     0.238 Goal=   None    Shift=    0.000
 RMSDP=2.06D-08 MaxDP=1.39D-06 DE=-1.30D-11 OVMax= 9.40D-07

 Cycle  12  Pass 1  IDiag  1:
 RMSU=  8.39D-09    CP:  1.00D+00  1.01D+00  1.39D+00  1.34D+00  1.23D+00
                    CP:  1.56D+00  1.38D+00  1.31D+00  1.14D+00  1.25D+00
                    CP:  9.58D-01
 E= -633.327517404297     Delta-E=       -0.000000000013 Rises=F Damp=F
 DIIS: error= 2.99D-08 at cycle  12 NSaved=  12.
 NSaved=12 IEnMin=12 EnMin= -633.327517404297     IErMin=12 ErrMin= 2.99D-08
 ErrMax= 2.99D-08  0.00D+00 EMaxC= 1.00D-01 BMatC= 3.32D-13 BMatP= 2.28D-12
 IDIUse=1 WtCom= 1.00D+00 WtEn= 0.00D+00
 Coeff-Com: -0.109D-04 0.188D-04-0.140D-03 0.116D-03 0.134D-02 0.238D-02
 Coeff-Com:  0.178D-03-0.236D-01-0.252D-01 0.338D-01 0.314D+00 0.697D+00
 Coeff:     -0.109D-04 0.188D-04-0.140D-03 0.116D-03 0.134D-02 0.238D-02
 Coeff:      0.178D-03-0.236D-01-0.252D-01 0.338D-01 0.314D+00 0.697D+00
 Gap=     0.238 Goal=   None    Shift=    0.000
 RMSDP=5.04D-09 MaxDP=2.46D-07 DE=-1.26D-11 OVMax= 3.61D-07

 Error on total polarization charges =  0.00916
 SCF Done:  E(RCAM-B3LYP) =  -633.327517404     A.U. after   12 cycles
            NFock= 12  Conv=0.50D-08     -V/T= 2.0041
 KE= 6.307306508437D+02 PE=-3.277738875642D+03 EE= 1.112893034139D+03
 Leave Link  502 at Fri Jan 23 22:54:37 2026, MaxMem=  2147483648 cpu:             753.6 elap:              47.8
 (Enter /data/home/wyx/g16/l601.exe)
 Copying SCF densities to generalized density rwf, IOpCl= 0 IROHF=0.

 **********************************************************************

            Population analysis using the SCF density.

 **********************************************************************

 Orbital symmetries:
       Occupied  (A) (A) (A) (A) (A) (A) (A) (A) (A) (A) (A) (A)
                 (A) (A) (A) (A) (A) (A) (A) (A) (A) (A) (A) (A)
                 (A) (A) (A) (A) (A) (A) (A) (A) (A) (A) (A) (A)
                 (A) (A) (A) (A) (A) (A) (A) (A) (A) (A) (A) (A)
                 (A) (A) (A) (A)
       Virtual   (A) (A) (A) (A) (A) (A) (A) (A) (A) (A) (A) (A)
                 (A) (A) (A) (A) (A) (A) (A) (A) (A) (A) (A) (A)
                 (A) (A) (A) (A) (A) (A) (A) (A) (A) (A) (A) (A)
                 (A) (A) (A) (A) (A) (A) (A) (A) (A) (A) (A) (A)
                 (A) (A) (A) (A) (A) (A) (A) (A) (A) (A) (A) (A)
                 (A) (A) (A) (A) (A) (A) (A) (A) (A) (A) (A) (A)
                 (A) (A) (A) (A) (A) (A) (A) (A) (A) (A) (A) (A)
                 (A) (A) (A) (A) (A) (A) (A) (A) (A) (A) (A) (A)
                 (A) (A) (A) (A) (A) (A) (A) (A) (A) (A) (A) (A)
                 (A) (A) (A) (A) (A) (A) (A) (A) (A) (A) (A) (A)
                 (A) (A) (A) (A) (A) (A) (A) (A) (A) (A) (A) (A)
                 (A) (A) (A) (A) (A) (A) (A) (A) (A) (A) (A) (A)
                 (A) (A) (A) (A) (A) (A) (A) (A) (A) (A) (A) (A)
                 (A) (A) (A) (A) (A) (A) (A) (A) (A) (A) (A) (A)
                 (A) (A) (A) (A) (A) (A) (A) (A) (A) (A) (A) (A)
                 (A) (A) (A) (A) (A) (A) (A) (A) (A) (A) (A) (A)
                 (A) (A) (A) (A) (A) (A) (A) (A) (A) (A) (A) (A)
                 (A) (A) (A) (A) (A) (A) (A) (A) (A) (A) (A) (A)
                 (A) (A) (A) (A) (A) (A) (A) (A) (A) (A) (A) (A)
                 (A) (A) (A) (A) (A) (A) (A) (A) (A) (A) (A) (A)
                 (A) (A) (A) (A) (A) (A) (A) (A) (A) (A) (A) (A)
                 (A) (A) (A) (A) (A) (A) (A) (A) (A) (A) (A) (A)
                 (A) (A) (A) (A) (A) (A) (A) (A) (A) (A) (A) (A)
                 (A) (A) (A) (A) (A) (A) (A) (A) (A) (A) (A) (A)
                 (A) (A) (A) (A) (A) (A) (A) (A) (A) (A) (A) (A)
                 (A) (A) (A) (A)
 The electronic state is 1-A.
 Alpha  occ. eigenvalues --  -19.18122 -19.17023 -14.44344 -10.33694 -10.32752
 Alpha  occ. eigenvalues --  -10.32335 -10.31517 -10.26273 -10.25327 -10.24907
 Alpha  occ. eigenvalues --  -10.24812 -10.24568 -10.24555 -10.23365  -1.12255
 Alpha  occ. eigenvalues --   -1.11208  -1.07772  -0.91450  -0.90389  -0.83926
 Alpha  occ. eigenvalues --   -0.82615  -0.81764  -0.78529  -0.74172  -0.71365
 Alpha  occ. eigenvalues --   -0.68679  -0.61638  -0.58336  -0.56943  -0.55333
 Alpha  occ. eigenvalues --   -0.54716  -0.53993  -0.52645  -0.51985  -0.50956
 Alpha  occ. eigenvalues --   -0.50086  -0.49496  -0.49192  -0.48718  -0.48229
 Alpha  occ. eigenvalues --   -0.46995  -0.45288  -0.45025  -0.43658  -0.43267
 Alpha  occ. eigenvalues --   -0.42529  -0.42166  -0.41786  -0.32971  -0.32392
 Alpha  occ. eigenvalues --   -0.30938  -0.26221
 Alpha virt. eigenvalues --   -0.02431   0.02451   0.06054   0.07977   0.08341
 Alpha virt. eigenvalues --    0.09840   0.10777   0.11867   0.12511   0.13358
 Alpha virt. eigenvalues --    0.14094   0.14706   0.15535   0.16079   0.16917
 Alpha virt. eigenvalues --    0.17524   0.17674   0.17966   0.18065   0.19218
 Alpha virt. eigenvalues --    0.19823   0.22004   0.22506   0.23263   0.23498
 Alpha virt. eigenvalues --    0.23748   0.24756   0.25404   0.26009   0.26434
 Alpha virt. eigenvalues --    0.26809   0.27283   0.28785   0.28809   0.30094
 Alpha virt. eigenvalues --    0.31459   0.31788   0.32617   0.33447   0.34158
 Alpha virt. eigenvalues --    0.35285   0.35806   0.36713   0.37935   0.38765
 Alpha virt. eigenvalues --    0.40014   0.40758   0.41542   0.42012   0.42533
 Alpha virt. eigenvalues --    0.43861   0.44230   0.45302   0.45825   0.46344
 Alpha virt. eigenvalues --    0.47136   0.47513   0.47971   0.48219   0.48864
 Alpha virt. eigenvalues --    0.49316   0.50339   0.50809   0.51287   0.51663
 Alpha virt. eigenvalues --    0.52872   0.53120   0.53331   0.54172   0.54258
 Alpha virt. eigenvalues --    0.54391   0.55756   0.56084   0.56521   0.58013
 Alpha virt. eigenvalues --    0.58631   0.58767   0.60487   0.61071   0.62310
 Alpha virt. eigenvalues --    0.63242   0.65584   0.65939   0.66551   0.67808
 Alpha virt. eigenvalues --    0.68526   0.70086   0.71036   0.72126   0.72904
 Alpha virt. eigenvalues --    0.73208   0.73670   0.74828   0.75852   0.77518
 Alpha virt. eigenvalues --    0.78082   0.79702   0.81970   0.84219   0.84407
 Alpha virt. eigenvalues --    0.89379   0.93496   0.99252   1.01025   1.24417
 Alpha virt. eigenvalues --    1.25516   1.26910   1.27685   1.29237   1.31394
 Alpha virt. eigenvalues --    1.32387   1.32959   1.33890   1.34960   1.35770
 Alpha virt. eigenvalues --    1.36541   1.37376   1.37955   1.39030   1.39741
 Alpha virt. eigenvalues --    1.39952   1.40065   1.41014   1.41545   1.41649
 Alpha virt. eigenvalues --    1.43097   1.43978   1.44614   1.45068   1.46932
 Alpha virt. eigenvalues --    1.47996   1.48833   1.49525   1.50316   1.50923
 Alpha virt. eigenvalues --    1.52117   1.52235   1.53726   1.54378   1.57578
 Alpha virt. eigenvalues --    1.58264   1.60481   1.60588   1.61180   1.62096
 Alpha virt. eigenvalues --    1.62524   1.63316   1.64086   1.65175   1.65671
 Alpha virt. eigenvalues --    1.66850   1.67219   1.67466   1.68212   1.68553
 Alpha virt. eigenvalues --    1.68703   1.69707   1.70391   1.71887   1.72062
 Alpha virt. eigenvalues --    1.73237   1.75000   1.75984   1.76810   1.78714
 Alpha virt. eigenvalues --    1.79849   1.82935   1.84083   1.85812   1.86475
 Alpha virt. eigenvalues --    1.86974   1.87524   1.88568   1.88800   1.90554
 Alpha virt. eigenvalues --    1.91307   1.94350   1.94960   1.98132   1.99632
 Alpha virt. eigenvalues --    2.00779   2.03601   2.04363   2.06250   2.09281
 Alpha virt. eigenvalues --    2.11119   2.12830   2.14303   2.16674   2.19284
 Alpha virt. eigenvalues --    2.20250   2.21060   2.21618   2.22518   2.26077
 Alpha virt. eigenvalues --    2.26876   2.27167   2.28839   2.30470   2.31214
 Alpha virt. eigenvalues --    2.33136   2.34463   2.36138   2.36555   2.37939
 Alpha virt. eigenvalues --    2.39260   2.40168   2.41440   2.43583   2.44616
 Alpha virt. eigenvalues --    2.45810   2.47574   2.50186   2.50403   2.51519
 Alpha virt. eigenvalues --    2.52544   2.53531   2.54991   2.56603   2.58555
 Alpha virt. eigenvalues --    2.58914   2.60080   2.60808   2.61569   2.62586
 Alpha virt. eigenvalues --    2.64357   2.65629   2.66774   2.67391   2.68963
 Alpha virt. eigenvalues --    2.70634   2.71974   2.72592   2.73756   2.74832
 Alpha virt. eigenvalues --    2.76141   2.76404   2.77189   2.77852   2.79491
 Alpha virt. eigenvalues --    2.80814   2.81366   2.83088   2.83526   2.84522
 Alpha virt. eigenvalues --    2.85484   2.85969   2.87659   2.90286   2.91836
 Alpha virt. eigenvalues --    2.97616   3.00137   3.00845   3.03848   3.10122
 Alpha virt. eigenvalues --    3.11930   3.15776   3.16307   3.16794   3.20363
 Alpha virt. eigenvalues --    3.20978   3.22096   3.24813   3.26270   3.27025
 Alpha virt. eigenvalues --    3.27888   3.29639   3.33396   3.34884   3.36414
 Alpha virt. eigenvalues --    3.36935   3.38494   3.39926   3.40250   3.41523
 Alpha virt. eigenvalues --    3.42485   3.44618   3.45293   3.46570   3.47995
 Alpha virt. eigenvalues --    3.48689   3.49098   3.54985   3.58071   3.59474
 Alpha virt. eigenvalues --    3.60546   3.89750   3.99275   4.34162   4.36579
 Alpha virt. eigenvalues --   21.63471  21.79286  22.08276  22.10773  22.11796
 Alpha virt. eigenvalues --   22.14597  22.15083  22.18200  22.20795  22.24659
 Alpha virt. eigenvalues --   22.30271  31.92861  43.62851  43.65677
          Condensed to atoms (all electrons):
               1          2          3          4          5          6
     1  O    7.934038   0.000000  -0.000237   0.000018   0.016049   0.017228
     2  O    0.000000   7.948529   0.000550   0.000038  -0.192818   0.000846
     3  N   -0.000237   0.000550   6.415696   0.375166  -0.118502   0.326278
     4  H    0.000018   0.000038   0.375166   0.412693   0.016612  -0.048498
     5  C    0.016049  -0.192818  -0.118502   0.016612   6.950591  -0.058096
     6  C    0.017228   0.000846   0.326278  -0.048498  -0.058096   5.658922
     7  C   -0.000448  -0.034173   0.370328  -0.040642   0.365748  -0.091857
     8  C   -0.000178   0.705942   0.005120  -0.000602  -0.196712   0.024047
     9  C   -0.026731   0.018572   0.015664  -0.000170  -0.488570  -0.128118
    10  H    0.015882  -0.000041  -0.001262   0.000020  -0.109109   0.025477
    11  H    0.003589   0.000089   0.003778   0.000006  -0.029183  -0.015372
    12  C   -0.218164  -0.002230  -0.094221   0.014748   0.142918  -0.194632
    13  C    0.711113  -0.000023   0.000368   0.000398   0.075681   0.185101
    14  C   -0.000005  -0.003635  -0.035703  -0.008437  -0.075419   0.010201
    15  H   -0.000000   0.004323   0.002503   0.001373   0.019270   0.006686
    16  H   -0.000000   0.000914   0.001601   0.000763  -0.011564  -0.000820
    17  H   -0.000000   0.000948  -0.002786   0.000924  -0.004979  -0.002043
    18  C   -0.000071  -0.105075  -0.000553   0.000021  -0.272355   0.000429
    19  H   -0.000003   0.008928   0.000001  -0.000001   0.021427   0.000034
    20  H    0.000079   0.003409   0.000118   0.000001   0.040925  -0.001071
    21  H    0.000018   0.001124   0.000011  -0.000001   0.005460   0.000255
    22  C   -0.106576   0.000000  -0.000103   0.000120   0.004160  -0.007214
    23  H    0.001187  -0.000000  -0.000039  -0.000017  -0.000082   0.011222
    24  H    0.004710  -0.000000  -0.000059  -0.000052  -0.000568  -0.034860
    25  H    0.007675   0.000000   0.000032  -0.000002  -0.000141  -0.001307
    26  C    0.000913   0.000003  -0.030931  -0.005550   0.000179   0.171397
    27  H   -0.000045  -0.000000  -0.002474   0.000417   0.000430  -0.035634
    28  H   -0.000254  -0.000000   0.003224   0.000896   0.000001  -0.044224
    29  H    0.000026  -0.000000  -0.000091   0.000941  -0.000567  -0.050474
               7          8          9         10         11         12
     1  O   -0.000448  -0.000178  -0.026731   0.015882   0.003589  -0.218164
     2  O   -0.034173   0.705942   0.018572  -0.000041   0.000089  -0.002230
     3  N    0.370328   0.005120   0.015664  -0.001262   0.003778  -0.094221
     4  H   -0.040642  -0.000602  -0.000170   0.000020   0.000006   0.014748
     5  C    0.365748  -0.196712  -0.488570  -0.109109  -0.029183   0.142918
     6  C   -0.091857   0.024047  -0.128118   0.025477  -0.015372  -0.194632
     7  C    5.450375  -0.170135  -0.176313   0.018350  -0.004028   0.001147
     8  C   -0.170135   5.289906   0.090539  -0.008811  -0.004737  -0.031183
     9  C   -0.176313   0.090539   6.276158   0.528430   0.391321   0.016643
    10  H    0.018350  -0.008811   0.528430   0.500366  -0.033827  -0.104981
    11  H   -0.004028  -0.004737   0.391321  -0.033827   0.555506  -0.022332
    12  C    0.001147  -0.031183   0.016643  -0.104981  -0.022332   7.295027
    13  C    0.010247  -0.005025  -0.260831  -0.001951   0.000424  -0.388909
    14  C    0.254916  -0.030202   0.011902   0.000503  -0.001307  -0.005355
    15  H   -0.078307   0.005461  -0.000027  -0.000003   0.000068  -0.001245
    16  H   -0.025396  -0.007232  -0.000732  -0.000050   0.000189  -0.000040
    17  H   -0.021877  -0.002884   0.000702   0.000051  -0.000068   0.000918
    18  C    0.003242   0.304366   0.003150   0.007146  -0.008564  -0.004432
    19  H    0.000126  -0.048931  -0.000111   0.000512  -0.000033  -0.000193
    20  H    0.000472  -0.062431  -0.009182  -0.004721   0.001838   0.007166
    21  H    0.001165  -0.026495  -0.009569  -0.002309   0.001026  -0.003863
    22  C   -0.000046  -0.000046   0.002850   0.001181   0.001527  -0.258617
    23  H    0.000034   0.000003  -0.001997  -0.000115   0.000147  -0.011479
    24  H    0.000007  -0.000010   0.003419  -0.000070  -0.000124   0.067433
    25  H    0.000007   0.000003   0.000230  -0.000139  -0.000035   0.022492
    26  C    0.001743   0.000431   0.019586   0.000013  -0.000702  -0.074720
    27  H   -0.000771  -0.000007  -0.000169   0.000040  -0.000021  -0.020192
    28  H   -0.000776   0.000002  -0.000793   0.000005  -0.000111  -0.008600
    29  H    0.003747  -0.000006  -0.000527  -0.000010   0.000111   0.024513
              13         14         15         16         17         18
     1  O    0.711113  -0.000005  -0.000000  -0.000000  -0.000000  -0.000071
     2  O   -0.000023  -0.003635   0.004323   0.000914   0.000948  -0.105075
     3  N    0.000368  -0.035703   0.002503   0.001601  -0.002786  -0.000553
     4  H    0.000398  -0.008437   0.001373   0.000763   0.000924   0.000021
     5  C    0.075681  -0.075419   0.019270  -0.011564  -0.004979  -0.272355
     6  C    0.185101   0.010201   0.006686  -0.000820  -0.002043   0.000429
     7  C    0.010247   0.254916  -0.078307  -0.025396  -0.021877   0.003242
     8  C   -0.005025  -0.030202   0.005461  -0.007232  -0.002884   0.304366
     9  C   -0.260831   0.011902  -0.000027  -0.000732   0.000702   0.003150
    10  H   -0.001951   0.000503  -0.000003  -0.000050   0.000051   0.007146
    11  H    0.000424  -0.001307   0.000068   0.000189  -0.000068  -0.008564
    12  C   -0.388909  -0.005355  -0.001245  -0.000040   0.000918  -0.004432
    13  C    5.434559  -0.000081  -0.000017  -0.000001  -0.000020   0.000624
    14  C   -0.000081   5.049628   0.386384   0.425168   0.409022   0.002208
    15  H   -0.000017   0.386384   0.588122  -0.029054  -0.027725   0.000305
    16  H   -0.000001   0.425168  -0.029054   0.502055  -0.023948  -0.000320
    17  H   -0.000020   0.409022  -0.027725  -0.023948   0.507161  -0.000144
    18  C    0.000624   0.002208   0.000305  -0.000320  -0.000144   5.359124
    19  H   -0.000016   0.000009  -0.000005   0.000033  -0.000017   0.393049
    20  H    0.000461   0.000022  -0.000017  -0.000036   0.000007   0.380374
    21  H   -0.000054  -0.000294  -0.000006   0.000028  -0.000006   0.396315
    22  C    0.281125  -0.000023   0.000002  -0.000000   0.000000   0.000029
    23  H   -0.021691  -0.000001   0.000000  -0.000000   0.000000  -0.000002
    24  H   -0.092465  -0.000001   0.000000   0.000000   0.000000   0.000003
    25  H   -0.040162   0.000000   0.000000   0.000000  -0.000000  -0.000001
    26  C   -0.052770   0.001431   0.000071   0.000057  -0.000179   0.000025
    27  H    0.006305  -0.000111   0.000002   0.000004  -0.000012  -0.000001
    28  H   -0.004853   0.000095  -0.000012  -0.000001   0.000001  -0.000000
    29  H   -0.000679  -0.000280   0.000124  -0.000005   0.000003   0.000000
              19         20         21         22         23         24
     1  O   -0.000003   0.000079   0.000018  -0.106576   0.001187   0.004710
     2  O    0.008928   0.003409   0.001124   0.000000  -0.000000  -0.000000
     3  N    0.000001   0.000118   0.000011  -0.000103  -0.000039  -0.000059
     4  H   -0.000001   0.000001  -0.000001   0.000120  -0.000017  -0.000052
     5  C    0.021427   0.040925   0.005460   0.004160  -0.000082  -0.000568
     6  C    0.000034  -0.001071   0.000255  -0.007214   0.011222  -0.034860
     7  C    0.000126   0.000472   0.001165  -0.000046   0.000034   0.000007
     8  C   -0.048931  -0.062431  -0.026495  -0.000046   0.000003  -0.000010
     9  C   -0.000111  -0.009182  -0.009569   0.002850  -0.001997   0.003419
    10  H    0.000512  -0.004721  -0.002309   0.001181  -0.000115  -0.000070
    11  H   -0.000033   0.001838   0.001026   0.001527   0.000147  -0.000124
    12  C   -0.000193   0.007166  -0.003863  -0.258617  -0.011479   0.067433
    13  C   -0.000016   0.000461  -0.000054   0.281125  -0.021691  -0.092465
    14  C    0.000009   0.000022  -0.000294  -0.000023  -0.000001  -0.000001
    15  H   -0.000005  -0.000017  -0.000006   0.000002   0.000000   0.000000
    16  H    0.000033  -0.000036   0.000028  -0.000000  -0.000000   0.000000
    17  H   -0.000017   0.000007  -0.000006   0.000000   0.000000   0.000000
    18  C    0.393049   0.380374   0.396315   0.000029  -0.000002   0.000003
    19  H    0.494588  -0.021580  -0.008942  -0.000000   0.000000   0.000000
    20  H   -0.021580   0.541977  -0.027330   0.000015  -0.000000  -0.000000
    21  H   -0.008942  -0.027330   0.506042  -0.000014   0.000000  -0.000000
    22  C   -0.000000   0.000015  -0.000014   5.424076   0.400101   0.398961
    23  H    0.000000  -0.000000   0.000000   0.400101   0.495187  -0.027464
    24  H    0.000000  -0.000000  -0.000000   0.398961  -0.027464   0.541888
    25  H   -0.000000  -0.000000  -0.000000   0.385295  -0.007527  -0.021821
    26  C    0.000000  -0.000015   0.000006  -0.027864  -0.015171   0.015890
    27  H    0.000000  -0.000000  -0.000000  -0.010753   0.001117  -0.001416
    28  H   -0.000000  -0.000000  -0.000000   0.008192  -0.000430  -0.010372
    29  H    0.000000   0.000000  -0.000000   0.002005   0.000232   0.000730
              25         26         27         28         29
     1  O    0.007675   0.000913  -0.000045  -0.000254   0.000026
     2  O    0.000000   0.000003  -0.000000  -0.000000  -0.000000
     3  N    0.000032  -0.030931  -0.002474   0.003224  -0.000091
     4  H   -0.000002  -0.005550   0.000417   0.000896   0.000941
     5  C   -0.000141   0.000179   0.000430   0.000001  -0.000567
     6  C   -0.001307   0.171397  -0.035634  -0.044224  -0.050474
     7  C    0.000007   0.001743  -0.000771  -0.000776   0.003747
     8  C    0.000003   0.000431  -0.000007   0.000002  -0.000006
     9  C    0.000230   0.019586  -0.000169  -0.000793  -0.000527
    10  H   -0.000139   0.000013   0.000040   0.000005  -0.000010
    11  H   -0.000035  -0.000702  -0.000021  -0.000111   0.000111
    12  C    0.022492  -0.074720  -0.020192  -0.008600   0.024513
    13  C   -0.040162  -0.052770   0.006305  -0.004853  -0.000679
    14  C    0.000000   0.001431  -0.000111   0.000095  -0.000280
    15  H    0.000000   0.000071   0.000002  -0.000012   0.000124
    16  H    0.000000   0.000057   0.000004  -0.000001  -0.000005
    17  H   -0.000000  -0.000179  -0.000012   0.000001   0.000003
    18  C   -0.000001   0.000025  -0.000001  -0.000000   0.000000
    19  H   -0.000000   0.000000   0.000000  -0.000000   0.000000
    20  H   -0.000000  -0.000015  -0.000000  -0.000000   0.000000
    21  H   -0.000000   0.000006  -0.000000  -0.000000  -0.000000
    22  C    0.385295  -0.027864  -0.010753   0.008192   0.002005
    23  H   -0.007527  -0.015171   0.001117  -0.000430   0.000232
    24  H   -0.021821   0.015890  -0.001416  -0.010372   0.000730
    25  H    0.490595   0.001799   0.000098   0.000873  -0.000043
    26  C    0.001799   5.258485   0.429969   0.427150   0.390316
    27  H    0.000098   0.429969   0.480856  -0.024591  -0.019369
    28  H    0.000873   0.427150  -0.024591   0.510016  -0.027080
    29  H   -0.000043   0.390316  -0.019369  -0.027080   0.523116
 Mulliken charges:
               1
     1  O   -0.359813
     2  O   -0.356222
     3  N   -0.233477
     4  H    0.278816
     5  C   -0.100786
     6  C    0.276096
     7  C    0.163116
     8  C    0.169809
     9  C   -0.275326
    10  H    0.169424
    11  H    0.160824
    12  C   -0.147618
    13  C    0.163144
    14  C   -0.390635
    15  H    0.121725
    16  H    0.168386
    17  H    0.166949
    18  C   -0.458894
    19  H    0.161125
    20  H    0.149520
    21  H    0.167434
    22  C   -0.498382
    23  H    0.176784
    24  H    0.156241
    25  H    0.162081
    26  C   -0.511559
    27  H    0.196330
    28  H    0.171642
    29  H    0.153268
 Sum of Mulliken charges =  -0.00000
 Mulliken charges with hydrogens summed into heavy atoms:
               1
     1  O   -0.359813
     2  O   -0.356222
     3  N    0.045339
     5  C   -0.100786
     6  C    0.276096
     7  C    0.163116
     8  C    0.169809
     9  C    0.054921
    12  C   -0.147618
    13  C    0.163144
    14  C    0.066425
    18  C    0.019184
    22  C   -0.003276
    26  C    0.009681
 Electronic spatial extent (au):  <R**2>=           3183.4691
 Charge=             -0.0000 electrons
 Dipole moment (field-independent basis, Debye):
    X=              3.4690    Y=              6.8502    Z=             -0.2044  Tot=              7.6812
 Quadrupole moment (field-independent basis, Debye-Ang):
   XX=            -95.9011   YY=            -78.8819   ZZ=            -85.0255
   XY=             12.3886   XZ=              5.2352   YZ=             -1.5318
 Traceless Quadrupole moment (field-independent basis, Debye-Ang):
   XX=             -9.2983   YY=              7.7210   ZZ=              1.5773
   XY=             12.3886   XZ=              5.2352   YZ=             -1.5318
 Octapole moment (field-independent basis, Debye-Ang**2):
  XXX=             98.2929  YYY=             59.9347  ZZZ=              2.1467  XYY=            -34.3158
  XXY=             27.7856  XXZ=             -9.0648  XZZ=              1.8861  YZZ=             -1.6070
  YYZ=              3.4792  XYZ=             -5.1219
 Hexadecapole moment (field-independent basis, Debye-Ang**3):
 XXXX=          -2988.0511 YYYY=          -1278.8952 ZZZZ=           -157.9663 XXXY=             37.8783
 XXXZ=             59.7081 YYYX=             86.0968 YYYZ=            -21.2338 ZZZX=             -3.0656
 ZZZY=              5.6388 XXYY=           -686.5835 XXZZ=           -484.6431 YYZZ=           -243.3167
 XXYZ=             -7.2215 YYXZ=              6.4560 ZZXY=             -1.4752
 N-N= 9.007876732550D+02 E-N=-3.277738877336D+03  KE= 6.307306508437D+02
 No NMR shielding tensors so no spin-rotation constants.
 Leave Link  601 at Fri Jan 23 22:54:37 2026, MaxMem=  2147483648 cpu:               1.8 elap:               0.1
 (Enter /data/home/wyx/g16/l9999.exe)
 1\1\GINC-CN012\SP\RCAM-B3LYP\TZVP\C11H15N1O2\WYX\23-Jan-2026\0\\#p CAM
 -B3LYP TZVP em=gd3bj scrf=(Solvent=TetraHydroFuran,NonEquilibrium=Read
 ) Geom=Check Guess=Read\\Title Card Required\\0,1\O,0,2.835325,-1.5647
 27,0.151062\O,0,-3.419382,-1.621129,0.074814\N,0,-0.635023,1.510422,-0
 .364906\H,0,-0.943978,2.467738,-0.419095\C,0,-1.237575,-0.75755,-0.223
 371\C,0,0.701128,1.299455,-0.105661\C,0,-1.611317,0.546648,-0.292429\C
 ,0,-2.22378,-1.828409,-0.10016\C,0,0.219739,-1.111762,-0.35379\H,0,0.4
 67803,-1.956362,0.28668\H,0,0.438047,-1.468115,-1.370088\C,0,1.151411,
 0.02257,-0.013629\C,0,2.512662,-0.393772,0.325538\C,0,-3.002158,1.0880
 73,-0.297785\H,0,-3.004832,2.141752,-0.574133\H,0,-3.636378,0.537489,-
 0.984702\H,0,-3.457201,0.988603,0.685913\C,0,-1.730135,-3.249197,-0.19
 0404\H,0,-2.579625,-3.920189,-0.269346\H,0,-1.067446,-3.397565,-1.0411
 72\H,0,-1.16258,-3.510819,0.703151\C,0,3.531918,0.543463,0.927016\H,0,
 4.046737,1.099008,0.141193\H,0,3.097844,1.25847,1.621044\H,0,4.271857,
 -0.062626,1.44439\C,0,1.468101,2.577239,0.033913\H,0,1.520537,2.892581
 ,1.076482\H,0,2.477723,2.497665,-0.348671\H,0,0.970578,3.371046,-0.521
 857\\Version=ES64L-G16RevA.03\State=1-A\HF=-633.3275174\RMSD=5.040e-09
 \Dipole=0.3906495,2.9946832,-0.1090049\Quadrupole=-12.0596879,10.15671
 88,1.9029691,3.169657,2.4568239,0.3871667\PG=C01 [X(C11H15N1O2)]\\@


 IF YOU GIVE A BOY AND A PIG EVERYTHING THEY WANT,
 YOU'LL GET A BAD BOY AND A GOOD PIG.
 Job cpu time:       0 days  0 hours 12 minutes 44.2 seconds.
 Elapsed time:       0 days  0 hours  0 minutes 48.6 seconds.
 File lengths (MBytes):  RWF=    340 Int=      0 D2E=      0 Chk=     67 Scr=      1
 Normal termination of Gaussian 16 at Fri Jan 23 22:54:38 2026.
