 Entering Gaussian System, Link 0=g16
 Input=DDL-S1-cLR-gs-8.gjf
 Output=DDL-S1-cLR-gs-8.log
 Initial command:
 /data/home/wyx/g16/l1.exe "/scr/tmp/wyx/13106/Gau-1986124.inp" -scrdir="/scr/tmp/wyx/13106/"
 Entering Link 1 = /data/home/wyx/g16/l1.exe PID=   1986125.
  
 Copyright (c) 1988,1990,1992,1993,1995,1998,2003,2009,2016,
            Gaussian, Inc.  All Rights Reserved.
  
 This is part of the Gaussian(R) 16 program.  It is based on
 the Gaussian(R) 09 system (copyright 2009, Gaussian, Inc.),
 the Gaussian(R) 03 system (copyright 2003, Gaussian, Inc.),
 the Gaussian(R) 98 system (copyright 1998, Gaussian, Inc.),
 the Gaussian(R) 94 system (copyright 1995, Gaussian, Inc.),
 the Gaussian 92(TM) system (copyright 1992, Gaussian, Inc.),
 the Gaussian 90(TM) system (copyright 1990, Gaussian, Inc.),
 the Gaussian 88(TM) system (copyright 1988, Gaussian, Inc.),
 the Gaussian 86(TM) system (copyright 1986, Carnegie Mellon
 University), and the Gaussian 82(TM) system (copyright 1983,
 Carnegie Mellon University). Gaussian is a federally registered
 trademark of Gaussian, Inc.
  
 This software contains proprietary and confidential information,
 including trade secrets, belonging to Gaussian, Inc.
  
 This software is provided under written license and may be
 used, copied, transmitted, or stored only in accord with that
 written license.
  
 The following legend is applicable only to US Government
 contracts under FAR:
  
                    RESTRICTED RIGHTS LEGEND
  
 Use, reproduction and disclosure by the US Government is
 subject to restrictions as set forth in subparagraphs (a)
 and (c) of the Commercial Computer Software - Restricted
 Rights clause in FAR 52.227-19.
  
 Gaussian, Inc.
 340 Quinnipiac St., Bldg. 40, Wallingford CT 06492
  
  
 ---------------------------------------------------------------
 Warning -- This program may not be used in any manner that
 competes with the business of Gaussian, Inc. or will provide
 assistance to any competitor of Gaussian, Inc.  The licensee
 of this program is prohibited from giving any competitor of
 Gaussian, Inc. access to this program.  By using this program,
 the user acknowledges that Gaussian, Inc. is engaged in the
 business of creating and licensing software in the field of
 computational chemistry and represents and warrants to the
 licensee that it is not a competitor of Gaussian, Inc. and that
 it will not use this program in any manner prohibited above.
 ---------------------------------------------------------------
  

 Cite this work as:
 Gaussian 16, Revision A.03,
 M. J. Frisch, G. W. Trucks, H. B. Schlegel, G. E. Scuseria, 
 M. A. Robb, J. R. Cheeseman, G. Scalmani, V. Barone, 
 G. A. Petersson, H. Nakatsuji, X. Li, M. Caricato, A. V. Marenich, 
 J. Bloino, B. G. Janesko, R. Gomperts, B. Mennucci, H. P. Hratchian, 
 J. V. Ortiz, A. F. Izmaylov, J. L. Sonnenberg, D. Williams-Young, 
 F. Ding, F. Lipparini, F. Egidi, J. Goings, B. Peng, A. Petrone, 
 T. Henderson, D. Ranasinghe, V. G. Zakrzewski, J. Gao, N. Rega, 
 G. Zheng, W. Liang, M. Hada, M. Ehara, K. Toyota, R. Fukuda, 
 J. Hasegawa, M. Ishida, T. Nakajima, Y. Honda, O. Kitao, H. Nakai, 
 T. Vreven, K. Throssell, J. A. Montgomery, Jr., J. E. Peralta, 
 F. Ogliaro, M. J. Bearpark, J. J. Heyd, E. N. Brothers, K. N. Kudin, 
 V. N. Staroverov, T. A. Keith, R. Kobayashi, J. Normand, 
 K. Raghavachari, A. P. Rendell, J. C. Burant, S. S. Iyengar, 
 J. Tomasi, M. Cossi, J. M. Millam, M. Klene, C. Adamo, R. Cammi, 
 J. W. Ochterski, R. L. Martin, K. Morokuma, O. Farkas, 
 J. B. Foresman, and D. J. Fox, Gaussian, Inc., Wallingford CT, 2016.
 
 ******************************************
 Gaussian 16:  ES64L-G16RevA.03 25-Dec-2016
                23-Jan-2026 
 ******************************************
 %nprocshared=16
 Will use up to   16 processors via shared memory.
 %mem=16GB
 %oldchk=DDL-S1-cLR-8.chk
 %chk=DDL-S1-cLR-gs-8.chk
 Copying data from "DDL-S1-cLR-8.chk" to current chk file "DDL-S1-cLR-gs-8.chk"
 IOpt=  2 FromEx=T IUOpen= 4 IOptOp= 5 NList=   0 IFRang= 0 IUIn= 4 IUOut= 2.
 ----------------------------------------------------------------------
 #p CAM-B3LYP TZVP em=gd3bj scrf=(Solvent=TetraHydroFuran,NonEquilibriu
 m=Read) Geom=Check Guess=Read
 ----------------------------------------------------------------------
 1/29=2,38=1,172=1/1;
 2/12=2,40=1/2;
 3/5=19,7=101,11=2,14=-4,25=1,30=1,70=6002201,72=20,74=-40,116=-2,124=41/1,2,3;
 4/5=1/1;
 5/5=2,38=6,53=20/2;
 6/7=2,8=2,9=2,10=2,28=1/1;
 99/5=1,9=1/99;
 Leave Link    1 at Fri Jan 23 22:42:28 2026, MaxMem=  2147483648 cpu:               0.8 elap:               0.1
 (Enter /data/home/wyx/g16/l101.exe)
 -------------------
 Title Card Required
 -------------------
 Structure from the checkpoint file:  "DDL-S1-cLR-gs-8.chk"
 Charge =  0 Multiplicity = 1
 Z-Matrix found in chk file.
 O,0,2.838096,-1.569581,0.089297
 O,0,-3.425778,-1.636137,-0.043006
 N,0,-0.651273,1.514771,-0.267211
 H,0,-0.961903,2.473776,-0.31881
 C,0,-1.243702,-0.760081,-0.211176
 C,0,0.688981,1.318527,-0.060953
 C,0,-1.625859,0.563866,-0.262867
 C,0,-2.217424,-1.837929,-0.145253
 C,0,0.205812,-1.095541,-0.263989
 H,0,0.434483,-1.919777,0.415412
 H,0,0.458048,-1.519871,-1.249425
 C,0,1.149238,0.024603,0.016439
 C,0,2.51584,-0.398181,0.295273
 C,0,-3.013957,1.097582,-0.32588
 H,0,-3.014985,2.170504,-0.509125
 H,0,-3.587772,0.611071,-1.107245
 H,0,-3.547278,0.909896,0.601895
 C,0,-1.720071,-3.257102,-0.187923
 H,0,-2.548827,-3.926017,-0.38976
 H,0,-0.949656,-3.412949,-0.937087
 H,0,-1.288883,-3.538985,0.771362
 C,0,3.550838,0.534848,0.875152
 H,0,4.060762,1.081539,0.079529
 H,0,3.133945,1.25781,1.571424
 H,0,4.292795,-0.073911,1.386936
 C,0,1.467949,2.589038,0.028789
 H,0,1.627473,2.895046,1.062506
 H,0,2.437739,2.504382,-0.446711
 H,0,0.935366,3.398806,-0.467591
 Recover connectivity data from disk.
 ITRead=  0  0  0  0  0  0  0  0  0  0  0  0  0  0  0  0  0  0  0  0
 ITRead=  0  0  0  0  0  0  0  0  0
 MicOpt= -1 -1 -1 -1 -1 -1 -1 -1 -1 -1 -1 -1 -1 -1 -1 -1 -1 -1 -1 -1
 MicOpt= -1 -1 -1 -1 -1 -1 -1 -1 -1
 NAtoms=     29 NQM=       29 NQMF=       0 NMMI=      0 NMMIF=      0
                NMic=       0 NMicF=      0.
                    Isotopes and Nuclear Properties:
 (Nuclear quadrupole moments (NQMom) in fm**2, nuclear magnetic moments (NMagM)
  in nuclear magnetons)

  Atom         1           2           3           4           5           6           7           8           9          10
 IAtWgt=          16          16          14           1          12          12          12          12          12           1
 AtmWgt=  15.9949146  15.9949146  14.0030740   1.0078250  12.0000000  12.0000000  12.0000000  12.0000000  12.0000000   1.0078250
 NucSpn=           0           0           2           1           0           0           0           0           0           1
 AtZEff=   5.6000000   5.6000000   4.5500000   1.0000000   3.6000000   3.6000000   3.6000000   3.6000000   3.6000000   1.0000000
 NQMom=    0.0000000   0.0000000   2.0440000   0.0000000   0.0000000   0.0000000   0.0000000   0.0000000   0.0000000   0.0000000
 NMagM=    0.0000000   0.0000000   0.4037610   2.7928460   0.0000000   0.0000000   0.0000000   0.0000000   0.0000000   2.7928460
 AtZNuc=   8.0000000   8.0000000   7.0000000   1.0000000   6.0000000   6.0000000   6.0000000   6.0000000   6.0000000   1.0000000

  Atom        11          12          13          14          15          16          17          18          19          20
 IAtWgt=           1          12          12          12           1           1           1          12           1           1
 AtmWgt=   1.0078250  12.0000000  12.0000000  12.0000000   1.0078250   1.0078250   1.0078250  12.0000000   1.0078250   1.0078250
 NucSpn=           1           0           0           0           1           1           1           0           1           1
 AtZEff=   1.0000000   3.6000000   3.6000000   3.6000000   1.0000000   1.0000000   1.0000000   3.6000000   1.0000000   1.0000000
 NQMom=    0.0000000   0.0000000   0.0000000   0.0000000   0.0000000   0.0000000   0.0000000   0.0000000   0.0000000   0.0000000
 NMagM=    2.7928460   0.0000000   0.0000000   0.0000000   2.7928460   2.7928460   2.7928460   0.0000000   2.7928460   2.7928460
 AtZNuc=   1.0000000   6.0000000   6.0000000   6.0000000   1.0000000   1.0000000   1.0000000   6.0000000   1.0000000   1.0000000

  Atom        21          22          23          24          25          26          27          28          29
 IAtWgt=           1          12           1           1           1          12           1           1           1
 AtmWgt=   1.0078250  12.0000000   1.0078250   1.0078250   1.0078250  12.0000000   1.0078250   1.0078250   1.0078250
 NucSpn=           1           0           1           1           1           0           1           1           1
 AtZEff=   1.0000000   3.6000000   1.0000000   1.0000000   1.0000000   3.6000000   1.0000000   1.0000000   1.0000000
 NQMom=    0.0000000   0.0000000   0.0000000   0.0000000   0.0000000   0.0000000   0.0000000   0.0000000   0.0000000
 NMagM=    2.7928460   0.0000000   2.7928460   2.7928460   2.7928460   0.0000000   2.7928460   2.7928460   2.7928460
 AtZNuc=   1.0000000   6.0000000   1.0000000   1.0000000   1.0000000   6.0000000   1.0000000   1.0000000   1.0000000
 Leave Link  101 at Fri Jan 23 22:42:30 2026, MaxMem=  2147483648 cpu:               0.9 elap:               0.1
 (Enter /data/home/wyx/g16/l202.exe)
                          Input orientation:                          
 ---------------------------------------------------------------------
 Center     Atomic      Atomic             Coordinates (Angstroms)
 Number     Number       Type             X           Y           Z
 ---------------------------------------------------------------------
      1          8           0        2.838096   -1.569581    0.089297
      2          8           0       -3.425778   -1.636137   -0.043006
      3          7           0       -0.651273    1.514771   -0.267211
      4          1           0       -0.961903    2.473776   -0.318810
      5          6           0       -1.243702   -0.760081   -0.211176
      6          6           0        0.688981    1.318527   -0.060953
      7          6           0       -1.625859    0.563866   -0.262867
      8          6           0       -2.217424   -1.837929   -0.145253
      9          6           0        0.205812   -1.095541   -0.263989
     10          1           0        0.434483   -1.919777    0.415412
     11          1           0        0.458048   -1.519871   -1.249425
     12          6           0        1.149238    0.024603    0.016439
     13          6           0        2.515840   -0.398181    0.295273
     14          6           0       -3.013957    1.097582   -0.325880
     15          1           0       -3.014985    2.170504   -0.509125
     16          1           0       -3.587772    0.611071   -1.107245
     17          1           0       -3.547278    0.909896    0.601895
     18          6           0       -1.720071   -3.257102   -0.187923
     19          1           0       -2.548827   -3.926017   -0.389760
     20          1           0       -0.949656   -3.412949   -0.937087
     21          1           0       -1.288883   -3.538985    0.771362
     22          6           0        3.550838    0.534848    0.875152
     23          1           0        4.060762    1.081539    0.079529
     24          1           0        3.133945    1.257810    1.571424
     25          1           0        4.292795   -0.073911    1.386936
     26          6           0        1.467949    2.589038    0.028789
     27          1           0        1.627473    2.895046    1.062506
     28          1           0        2.437739    2.504382   -0.446711
     29          1           0        0.935366    3.398806   -0.467591
 ---------------------------------------------------------------------
                    Distance matrix (angstroms):
                    1          2          3          4          5
     1  O    0.000000
     2  O    6.265625   0.000000
     3  N    4.670762   4.204327   0.000000
     4  H    5.563747   4.799805   1.009378   0.000000
     5  C    4.172128   2.357374   2.351396   3.247896   0.000000
     6  C    3.603115   5.065728   1.370159   2.031381   2.842260
     7  C    4.960092   2.850975   1.361638   2.022801   1.378968
     8  C    5.068067   1.229347   3.702472   4.494136   1.454042
     9  C    2.697859   3.678250   2.747423   3.755874   1.488762
    10  H    2.450784   3.897719   3.666192   4.668221   2.133966
    11  H    2.731168   4.068546   3.377039   4.339530   2.133353
    12  C    2.323569   4.867480   2.354336   3.250809   2.528577
    13  C    1.232255   6.078634   3.742510   4.551915   3.810724
    14  C    6.444583   2.778999   2.399951   2.470807   2.568632
    15  H    6.971722   3.857011   2.464882   2.084068   3.437229
    16  H    6.890482   2.491744   3.185178   3.314587   2.859661
    17  H    6.869029   2.629248   3.083515   3.158731   2.959116
    18  C    4.868415   2.357534   4.890745   5.782293   2.542161
    19  H    5.899256   2.476455   5.763498   6.593991   3.429052
    20  H    4.335728   3.176102   4.981987   5.919117   2.766066
    21  H    4.623388   2.974953   5.198618   6.119533   2.947835
    22  C    2.356733   7.364059   4.463516   5.054683   5.083755
    23  H    2.919494   7.965492   4.744596   5.227252   5.622581
    24  H    3.205989   7.349237   4.215979   4.671994   5.139391
    25  H    2.457040   8.003852   5.450130   6.083759   5.803240
    26  C    4.378935   6.465742   2.394320   2.457293   4.315928
    27  H    4.727117   6.876709   2.977581   2.964856   4.819322
    28  H    4.128531   7.189416   3.248622   3.402185   4.925972
    29  H    5.349334   6.674616   2.471268   2.115998   4.702173
                    6          7          8          9         10
     6  C    0.000000
     7  C    2.443106   0.000000
     8  C    4.291563   2.476369   0.000000
     9  C    2.470304   2.471569   2.537186   0.000000
    10  H    3.283033   3.297507   2.711762   1.092356   0.000000
    11  H    3.085822   3.107720   2.911788   1.102163   1.712356
    12  C    1.375524   2.840771   3.850920   1.491112   2.109661
    13  C    2.532074   4.288441   4.966963   2.476957   2.581034
    14  C    3.718972   1.488502   3.047018   3.896220   4.641735
    15  H    3.827021   2.138130   4.103175   4.593547   5.429917
    16  H    4.459354   2.136423   2.966628   4.244395   4.990212
    17  H    4.307231   2.135275   3.142815   4.342490   4.888379
    18  C    5.172623   3.822864   1.504404   2.896059   2.606637
    19  H    6.172257   4.585523   2.128315   3.951639   3.684215
    20  H    5.083267   4.089851   2.171388   2.675546   2.444311
    21  H    5.310378   4.244593   2.143820   3.045732   2.391344
    22  C    3.111378   5.300389   6.320138   3.891659   3.993521
    23  H    3.383017   5.720391   6.927441   4.440532   4.719175
    24  H    2.940440   5.148001   6.416208   4.181024   4.326721
    25  H    4.125863   6.177303   6.916814   4.524678   4.386075
    26  C    1.492998   3.709182   5.762838   3.905743   4.641868
    27  H    2.151358   4.216062   6.216347   4.439087   5.002447
    28  H    2.147840   4.506909   6.373153   4.239614   4.932492
    29  H    2.133921   3.826052   6.121060   4.557725   5.414601
                   11         12         13         14         15
    11  H    0.000000
    12  C    2.113186   0.000000
    13  C    2.806918   1.457428   0.000000
    14  C    4.445089   4.312848   5.762100   0.000000
    15  H    5.121413   4.714007   6.151034   1.088458   0.000000
    16  H    4.574909   4.903659   6.343479   1.084660   1.765691
    17  H    5.037240   4.814952   6.210192   1.086473   1.762621
    18  C    2.981436   4.363976   5.133210   4.544936   5.589175
    19  H    3.945866   5.426609   6.210133   5.045490   6.115482
    20  H    2.379691   4.139001   4.755754   4.997980   5.968558
    21  H    3.348458   4.383321   4.956534   5.067304   6.100602
    22  C    4.277972   2.601042   1.509312   6.697438   6.906636
    23  H    4.638211   3.098075   2.150093   7.086343   7.183213
    24  H    4.778402   2.806749   2.180120   6.436003   6.555230
    25  H    4.873036   3.430731   2.110556   7.595707   7.876300
    26  C    4.420053   2.584194   3.176880   4.736846   4.534448
    27  H    5.118991   3.092314   3.496167   5.167336   4.954533
    28  H    4.556110   2.832675   2.996917   5.631578   5.463293
    29  H    5.003247   3.415446   4.182938   4.573059   4.137115
                   16         17         18         19         20
    16  H    0.000000
    17  H    1.735539   0.000000
    18  C    4.392747   4.618048   0.000000
    19  H    4.709497   5.036501   1.083984   0.000000
    20  H    4.814701   5.272864   1.085852   1.766396   0.000000
    21  H    5.102648   4.992155   1.088857   1.756547   1.746356
    22  C    7.409147   7.113268   6.579627   7.661934   6.254899
    23  H    7.754344   7.627883   7.232798   8.305571   6.807218
    24  H    7.264642   6.760161   6.858659   7.938023   6.692116
    25  H    8.294183   7.940460   6.983369   8.050041   6.635778
    26  C    5.546462   5.319819   6.662416   7.665221   6.542292
    27  H    6.092876   5.561567   7.114671   8.128804   7.101462
    28  H    6.350411   6.281910   7.109786   8.137513   6.835914
    29  H    5.351579   5.237611   7.171518   8.111639   7.083342
                   21         22         23         24         25
    21  H    0.000000
    22  C    6.326910   0.000000
    23  H    7.102575   1.091746   0.000000
    24  H    6.573488   1.086862   1.765166   0.000000
    25  H    6.598545   1.087663   1.760175   1.774951   0.000000
    26  C    6.760488   3.045399   2.999634   2.632002   4.112860
    27  H    7.070124   3.050405   3.189976   2.282323   4.002987
    28  H    7.203728   2.620186   2.221624   2.472148   3.667573
    29  H    7.390212   4.104377   3.929016   3.684453   5.174105
                   26         27         28         29
    26  C    0.000000
    27  H    1.089798   0.000000
    28  H    1.083402   1.756953   0.000000
    29  H    1.088927   1.753278   1.748587   0.000000
 Stoichiometry    C11H15NO2
 Framework group  C1[X(C11H15NO2)]
 Deg. of freedom    81
 Full point group                 C1      NOp   1
 RotChk:  IX=0 Diff= 7.97D-16
 Largest Abelian subgroup         C1      NOp   1
 Largest concise Abelian subgroup C1      NOp   1
                         Standard orientation:                         
 ---------------------------------------------------------------------
 Center     Atomic      Atomic             Coordinates (Angstroms)
 Number     Number       Type             X           Y           Z
 ---------------------------------------------------------------------
      1          8           0        2.286511   -2.281687   -0.237898
      2          8           0       -3.613754   -0.252877    0.335562
      3          7           0        0.021405    1.802196   -0.152965
      4          1           0        0.048054    2.811221   -0.154951
      5          6           0       -1.293039   -0.145483   -0.064385
      6          6           0        1.231035    1.160687   -0.102002
      7          6           0       -1.210568    1.230969   -0.052971
      8          6           0       -2.560688   -0.839717    0.094801
      9          6           0       -0.054166   -0.941002   -0.285199
     10          1           0       -0.048694   -1.828409    0.351763
     11          1           0       -0.060477   -1.373385   -1.298988
     12          6           0        1.234386   -0.214820   -0.096236
     13          6           0        2.399798   -1.082165    0.020492
     14          6           0       -2.336946    2.198727    0.048796
     15          1           0       -1.995421    3.218803   -0.117178
     16          1           0       -3.116918    1.972124   -0.670080
     17          1           0       -2.805566    2.151388    1.027866
     18          6           0       -2.576895   -2.339275   -0.024761
     19          1           0       -3.598307   -2.682830   -0.141850
     20          1           0       -1.983825   -2.703564   -0.858209
     21          1           0       -2.171013   -2.797929    0.875519
     22          6           0        3.741414   -0.578168    0.493861
     23          1           0        4.322297   -0.191867   -0.345934
     24          1           0        3.664801    0.205190    1.243361
     25          1           0        4.282994   -1.424818    0.909655
     26          6           0        2.396923    2.093069   -0.081717
     27          1           0        2.753810    2.274506    0.931876
     28          1           0        3.228294    1.715270   -0.664684
     29          1           0        2.120562    3.058506   -0.502810
 ---------------------------------------------------------------------
 Rotational constants (GHZ):           1.0780364           0.4904627           0.3446607
 Leave Link  202 at Fri Jan 23 22:42:30 2026, MaxMem=  2147483648 cpu:               0.0 elap:               0.0
 (Enter /data/home/wyx/g16/l301.exe)
 Standard basis: TZVP (5D, 7F)
 Ernie: Thresh=  0.10000D-02 Tol=  0.10000D-05 Strict=F.
 There are   370 symmetry adapted cartesian basis functions of A   symmetry.
 There are   356 symmetry adapted basis functions of A   symmetry.
   356 basis functions,   610 primitive gaussians,   370 cartesian basis functions
    52 alpha electrons       52 beta electrons
       nuclear repulsion energy       900.3594668136 Hartrees.
 IExCor=20419 DFT=T Ex+Corr=CAM-B3LYP ExCW=0 ScaHFX=  1.000000
 ScaDFX=  1.000000  1.000000  1.000000  0.810000 ScalE2=  1.000000  1.000000
 IRadAn=      5 IRanWt=     -1 IRanGd=            0 ICorTp=0 IEmpDi=141
 HFx  wShort=  0.000000 wLong=  0.330000 cFull=  0.190000 cShort=  0.000000 cLong=  0.460000
 DFx  wShort=  0.000000 wLong=  0.330000 cFull=  0.190000 cShort=  0.000000 cLong=  0.460000
 NAtoms=   29 NActive=   29 NUniq=   29 SFac= 1.00D+00 NAtFMM=   60 NAOKFM=F Big=F
 Integral buffers will be    131072 words long.
 Raffenetti 2 integral format.
 Two-electron integral symmetry is turned on.
 R6Disp:  Grimme-D3(BJ) Dispersion energy=       -0.0261695984 Hartrees.
 Nuclear repulsion after empirical dispersion term =      900.3332972152 Hartrees.
 ------------------------------------------------------------------------------
 Polarizable Continuum Model (PCM)
 =================================
 Model                : PCM.
 Atomic radii         : UFF (Universal Force Field).
 Polarization charges : Total charges.
 Charge compensation  : None.
 Solution method      : On-the-fly selection.
 Cavity type          : Scaled VdW (van der Waals Surface) (Alpha=1.100).
 Cavity algorithm     : GePol (No added spheres)
                        Default sphere list used, NSphG=   29.
                        Lebedev-Laikov grids with approx.  5.0 points / Ang**2.
                        Smoothing algorithm: York/Karplus (Gamma=1.0000).
                        Polarization charges: spherical gaussians, with
                                              point-specific exponents (IZeta= 3).
                        Self-potential: point-specific (ISelfS= 7).
                        Self-field    : sphere-specific E.n sum rule (ISelfD= 2).
 Solvent              : TetraHydroFuran, Eps=   7.425700 Eps(inf)=   1.974025
 ------------------------------------------------------------------------------
 GePol: Number of generator spheres                  =      29
 GePol: Total number of spheres                      =      29
 GePol: Number of exposed spheres                    =      29 (100.00%)
 GePol: Number of points                             =    2113
 GePol: Average weight of points                     =       0.13
 GePol: Minimum weight of points                     =   0.27D-08
 GePol: Maximum weight of points                     =    0.20577
 GePol: Number of points with low weight             =     133
 GePol: Fraction of low-weight points (<1% of avg)   =       6.29%
 GePol: Cavity surface area                          =    268.514 Ang**2
 GePol: Cavity volume                                =    286.569 Ang**3
 Leave Link  301 at Fri Jan 23 22:42:30 2026, MaxMem=  2147483648 cpu:               0.6 elap:               0.0
 (Enter /data/home/wyx/g16/l302.exe)
 NPDir=0 NMtPBC=     1 NCelOv=     1 NCel=       1 NClECP=     1 NCelD=      1
         NCelK=      1 NCelE2=     1 NClLst=     1 CellRange=     0.0.
 One-electron integrals computed using PRISM.
 One-electron integral symmetry used in STVInt
 NBasis=   356 RedAO= T EigKep=  4.58D-05  NBF=   356
 NBsUse=   356 1.00D-06 EigRej= -1.00D+00 NBFU=   356
 Precomputing XC quadrature grid using
 IXCGrd= 4 IRadAn=           5 IRanWt=          -1 IRanGd=           0 AccXCQ= 0.00D+00.
 Generated NRdTot=       0 NPtTot=           0 NUsed=           0 NTot=          32
 NSgBfM=   366   366   366   366   366 MxSgAt=    29 MxSgA2=    29.
 Leave Link  302 at Fri Jan 23 22:42:31 2026, MaxMem=  2147483648 cpu:               3.1 elap:               0.2
 (Enter /data/home/wyx/g16/l303.exe)
 DipDrv:  MaxL=1.
 Leave Link  303 at Fri Jan 23 22:42:31 2026, MaxMem=  2147483648 cpu:               0.6 elap:               0.0
 (Enter /data/home/wyx/g16/l401.exe)
 Initial guess from the checkpoint file:  "DDL-S1-cLR-gs-8.chk"
 B after Tr=    -0.000000   -0.000000   -0.000000
         Rot=    1.000000   -0.000000    0.000000   -0.000000 Ang=   0.00 deg.
 Guess basis will be translated and rotated to current coordinates.
 JPrj=2 DoOrth=T DoCkMO=T.
 Leave Link  401 at Fri Jan 23 22:42:31 2026, MaxMem=  2147483648 cpu:               2.2 elap:               0.2
 (Enter /data/home/wyx/g16/l502.exe)
 Integral symmetry usage will be decided dynamically.
 Closed shell SCF:
 Using DIIS extrapolation, IDIIS=  1040.
 NGot=  2147483648 LenX=  2147200095 LenY=  2147062754
 Requested convergence on RMS density matrix=1.00D-08 within 128 cycles.
 Requested convergence on MAX density matrix=1.00D-06.
 Requested convergence on             energy=1.00D-06.
 No special actions if energy rises.
 Fock matrices will be formed incrementally for  20 cycles.

 Cycle   1  Pass 1  IDiag  1:
 FoFJK:  IHMeth= 1 ICntrl=       0 DoSepK=T KAlg= 0 I1Cent=           0 FoldK=F
 IRaf=         1 NMat=       1 IRICut=       1 DoRegI=T DoRafI=F ISym2E= 0 IDoP0=0 IntGTp=1.
 FoFCou: FMM=F IPFlag=           0 FMFlag=      100000 FMFlg1=           0
         NFxFlg=           0 DoJE=T BraDBF=F KetDBF=F FulRan=T
         wScrn=  0.000000 ICntrl=       500 IOpCl=  0 I1Cent=           0 NGrid=           0
         NMat0=    1 NMatS0=      1 NMatT0=    0 NMatD0=    1 NMtDS0=    0 NMtDT0=    0
 Symmetry not used in FoFCou.
 Inv3:  Mode=1 IEnd=    13394307.
 Iteration    1 A*A^-1 deviation from unit magnitude is 3.11D-15 for   1940.
 Iteration    1 A*A^-1 deviation from orthogonality  is 2.53D-15 for   1367      3.
 Iteration    1 A^-1*A deviation from unit magnitude is 3.22D-15 for    674.
 Iteration    1 A^-1*A deviation from orthogonality  is 2.73D-15 for   1407    897.
 NEqPCM:  Using non-equilibrium solvation (IEInf=1, Eps=   7.4257, EpsInf=   1.9740)
 Inv3:  Mode=1 IEnd=    13394307.
 Iteration    1 A*A^-1 deviation from unit magnitude is 3.00D-15 for   1843.
 Iteration    1 A*A^-1 deviation from orthogonality  is 1.53D-15 for   1797    644.
 Iteration    1 A^-1*A deviation from unit magnitude is 2.78D-15 for   1843.
 Iteration    1 A^-1*A deviation from orthogonality  is 2.01D-15 for   1416    974.
 E= -633.325271406117    
 DIIS: error= 2.18D-04 at cycle   1 NSaved=   1.
 NSaved= 1 IEnMin= 1 EnMin= -633.325271406117     IErMin= 1 ErrMin= 2.18D-04
 ErrMax= 2.18D-04  0.00D+00 EMaxC= 1.00D-01 BMatC= 1.04D-05 BMatP= 1.04D-05
 IDIUse=3 WtCom= 9.98D-01 WtEn= 2.18D-03
 Coeff-Com:  0.100D+01
 Coeff-En:   0.100D+01
 Coeff:      0.100D+01
 Gap=     0.226 Goal=   None    Shift=    0.000
 RMSDP=1.41D-04 MaxDP=8.45D-03              OVMax= 2.99D-03

 Cycle   2  Pass 1  IDiag  1:
 RMSU=  1.40D-04    CP:  9.99D-01
 E= -633.325290752145     Delta-E=       -0.000019346029 Rises=F Damp=F
 DIIS: error= 1.11D-04 at cycle   2 NSaved=   2.
 NSaved= 2 IEnMin= 2 EnMin= -633.325290752145     IErMin= 2 ErrMin= 1.11D-04
 ErrMax= 1.11D-04  0.00D+00 EMaxC= 1.00D-01 BMatC= 6.27D-06 BMatP= 1.04D-05
 IDIUse=3 WtCom= 9.99D-01 WtEn= 1.11D-03
 Coeff-Com:  0.413D+00 0.587D+00
 Coeff-En:   0.000D+00 0.100D+01
 Coeff:      0.413D+00 0.587D+00
 Gap=     0.226 Goal=   None    Shift=    0.000
 RMSDP=2.60D-05 MaxDP=2.15D-03 DE=-1.93D-05 OVMax= 8.66D-04

 Cycle   3  Pass 1  IDiag  1:
 RMSU=  2.08D-05    CP:  1.00D+00  9.14D-01
 E= -633.325295877277     Delta-E=       -0.000005125132 Rises=F Damp=F
 DIIS: error= 8.33D-05 at cycle   3 NSaved=   3.
 NSaved= 3 IEnMin= 3 EnMin= -633.325295877277     IErMin= 3 ErrMin= 8.33D-05
 ErrMax= 8.33D-05  0.00D+00 EMaxC= 1.00D-01 BMatC= 1.47D-06 BMatP= 6.27D-06
 IDIUse=1 WtCom= 1.00D+00 WtEn= 0.00D+00
 Coeff-Com:  0.739D-01 0.310D+00 0.616D+00
 Coeff:      0.739D-01 0.310D+00 0.616D+00
 Gap=     0.226 Goal=   None    Shift=    0.000
 RMSDP=9.90D-06 MaxDP=5.13D-04 DE=-5.13D-06 OVMax= 4.73D-04

 Cycle   4  Pass 1  IDiag  1:
 RMSU=  9.11D-06    CP:  9.99D-01  9.13D-01  8.87D-01
 E= -633.325297043386     Delta-E=       -0.000001166108 Rises=F Damp=F
 DIIS: error= 1.73D-05 at cycle   4 NSaved=   4.
 NSaved= 4 IEnMin= 4 EnMin= -633.325297043386     IErMin= 4 ErrMin= 1.73D-05
 ErrMax= 1.73D-05  0.00D+00 EMaxC= 1.00D-01 BMatC= 1.19D-07 BMatP= 1.47D-06
 IDIUse=1 WtCom= 1.00D+00 WtEn= 0.00D+00
 Coeff-Com: -0.105D-01 0.579D-01 0.244D+00 0.709D+00
 Coeff:     -0.105D-01 0.579D-01 0.244D+00 0.709D+00
 Gap=     0.226 Goal=   None    Shift=    0.000
 RMSDP=4.75D-06 MaxDP=2.80D-04 DE=-1.17D-06 OVMax= 1.69D-04

 Cycle   5  Pass 1  IDiag  1:
 RMSU=  2.83D-06    CP:  1.00D+00  9.19D-01  1.04D+00  1.11D+00
 E= -633.325297149911     Delta-E=       -0.000000106525 Rises=F Damp=F
 DIIS: error= 5.58D-06 at cycle   5 NSaved=   5.
 NSaved= 5 IEnMin= 5 EnMin= -633.325297149911     IErMin= 5 ErrMin= 5.58D-06
 ErrMax= 5.58D-06  0.00D+00 EMaxC= 1.00D-01 BMatC= 2.06D-08 BMatP= 1.19D-07
 IDIUse=1 WtCom= 1.00D+00 WtEn= 0.00D+00
 Coeff-Com: -0.123D-01-0.174D-01 0.242D-01 0.317D+00 0.689D+00
 Coeff:     -0.123D-01-0.174D-01 0.242D-01 0.317D+00 0.689D+00
 Gap=     0.226 Goal=   None    Shift=    0.000
 RMSDP=1.34D-06 MaxDP=7.29D-05 DE=-1.07D-07 OVMax= 7.41D-05

 Cycle   6  Pass 1  IDiag  1:
 RMSU=  9.45D-07    CP:  1.00D+00  9.18D-01  1.07D+00  1.20D+00  1.07D+00
 E= -633.325297173943     Delta-E=       -0.000000024032 Rises=F Damp=F
 DIIS: error= 3.08D-06 at cycle   6 NSaved=   6.
 NSaved= 6 IEnMin= 6 EnMin= -633.325297173943     IErMin= 6 ErrMin= 3.08D-06
 ErrMax= 3.08D-06  0.00D+00 EMaxC= 1.00D-01 BMatC= 1.76D-09 BMatP= 2.06D-08
 IDIUse=1 WtCom= 1.00D+00 WtEn= 0.00D+00
 Coeff-Com: -0.220D-02-0.118D-01-0.126D-01 0.161D-01 0.208D+00 0.802D+00
 Coeff:     -0.220D-02-0.118D-01-0.126D-01 0.161D-01 0.208D+00 0.802D+00
 Gap=     0.226 Goal=   None    Shift=    0.000
 RMSDP=8.22D-07 MaxDP=5.94D-05 DE=-2.40D-08 OVMax= 4.93D-05

 Cycle   7  Pass 1  IDiag  1:
 RMSU=  3.36D-07    CP:  1.00D+00  9.17D-01  1.08D+00  1.24D+00  1.21D+00
                    CP:  1.27D+00
 E= -633.325297177030     Delta-E=       -0.000000003087 Rises=F Damp=F
 DIIS: error= 1.75D-06 at cycle   7 NSaved=   7.
 NSaved= 7 IEnMin= 7 EnMin= -633.325297177030     IErMin= 7 ErrMin= 1.75D-06
 ErrMax= 1.75D-06  0.00D+00 EMaxC= 1.00D-01 BMatC= 7.02D-10 BMatP= 1.76D-09
 IDIUse=1 WtCom= 1.00D+00 WtEn= 0.00D+00
 Coeff-Com:  0.934D-03-0.388D-02-0.798D-02-0.444D-01-0.147D-01 0.426D+00
 Coeff-Com:  0.644D+00
 Coeff:      0.934D-03-0.388D-02-0.798D-02-0.444D-01-0.147D-01 0.426D+00
 Coeff:      0.644D+00
 Gap=     0.226 Goal=   None    Shift=    0.000
 RMSDP=2.70D-07 MaxDP=1.73D-05 DE=-3.09D-09 OVMax= 2.29D-05

 Cycle   8  Pass 1  IDiag  1:
 RMSU=  1.31D-07    CP:  1.00D+00  9.16D-01  1.09D+00  1.25D+00  1.26D+00
                    CP:  1.41D+00  1.04D+00
 E= -633.325297178071     Delta-E=       -0.000000001041 Rises=F Damp=F
 DIIS: error= 7.34D-07 at cycle   8 NSaved=   8.
 NSaved= 8 IEnMin= 8 EnMin= -633.325297178071     IErMin= 8 ErrMin= 7.34D-07
 ErrMax= 7.34D-07  0.00D+00 EMaxC= 1.00D-01 BMatC= 6.77D-11 BMatP= 7.02D-10
 IDIUse=1 WtCom= 1.00D+00 WtEn= 0.00D+00
 Coeff-Com:  0.735D-03 0.227D-03 0.820D-03-0.167D-01-0.493D-01-0.200D-01
 Coeff-Com:  0.193D+00 0.892D+00
 Coeff:      0.735D-03 0.227D-03 0.820D-03-0.167D-01-0.493D-01-0.200D-01
 Coeff:      0.193D+00 0.892D+00
 Gap=     0.226 Goal=   None    Shift=    0.000
 RMSDP=1.75D-07 MaxDP=9.17D-06 DE=-1.04D-09 OVMax= 1.42D-05

 Cycle   9  Pass 1  IDiag  1:
 RMSU=  6.81D-08    CP:  1.00D+00  9.16D-01  1.09D+00  1.25D+00  1.28D+00
                    CP:  1.52D+00  1.26D+00  1.18D+00
 E= -633.325297178262     Delta-E=       -0.000000000191 Rises=F Damp=F
 DIIS: error= 3.09D-07 at cycle   9 NSaved=   9.
 NSaved= 9 IEnMin= 9 EnMin= -633.325297178262     IErMin= 9 ErrMin= 3.09D-07
 ErrMax= 3.09D-07  0.00D+00 EMaxC= 1.00D-01 BMatC= 9.62D-12 BMatP= 6.77D-11
 IDIUse=1 WtCom= 1.00D+00 WtEn= 0.00D+00
 Coeff-Com:  0.128D-03 0.497D-03 0.159D-02 0.153D-02-0.155D-01-0.734D-01
 Coeff-Com: -0.300D-01 0.310D+00 0.805D+00
 Coeff:      0.128D-03 0.497D-03 0.159D-02 0.153D-02-0.155D-01-0.734D-01
 Coeff:     -0.300D-01 0.310D+00 0.805D+00
 Gap=     0.226 Goal=   None    Shift=    0.000
 RMSDP=5.35D-08 MaxDP=2.21D-06 DE=-1.91D-10 OVMax= 5.37D-06

 Cycle  10  Pass 1  IDiag  1:
 RMSU=  2.27D-08    CP:  1.00D+00  9.16D-01  1.09D+00  1.25D+00  1.28D+00
                    CP:  1.56D+00  1.33D+00  1.30D+00  1.23D+00
 E= -633.325297178286     Delta-E=       -0.000000000024 Rises=F Damp=F
 DIIS: error= 1.12D-07 at cycle  10 NSaved=  10.
 NSaved=10 IEnMin=10 EnMin= -633.325297178286     IErMin=10 ErrMin= 1.12D-07
 ErrMax= 1.12D-07  0.00D+00 EMaxC= 1.00D-01 BMatC= 1.84D-12 BMatP= 9.62D-12
 IDIUse=1 WtCom= 1.00D+00 WtEn= 0.00D+00
 Coeff-Com: -0.518D-04 0.206D-03 0.434D-03 0.322D-02 0.569D-03-0.283D-01
 Coeff-Com: -0.383D-01-0.287D-02 0.311D+00 0.754D+00
 Coeff:     -0.518D-04 0.206D-03 0.434D-03 0.322D-02 0.569D-03-0.283D-01
 Coeff:     -0.383D-01-0.287D-02 0.311D+00 0.754D+00
 Gap=     0.226 Goal=   None    Shift=    0.000
 RMSDP=2.49D-08 MaxDP=1.31D-06 DE=-2.43D-11 OVMax= 2.00D-06

 Cycle  11  Pass 1  IDiag  1:
 RMSU=  1.01D-08    CP:  1.00D+00  9.16D-01  1.09D+00  1.25D+00  1.28D+00
                    CP:  1.57D+00  1.36D+00  1.33D+00  1.42D+00  1.20D+00
 E= -633.325297178282     Delta-E=        0.000000000004 Rises=F Damp=F
 DIIS: error= 4.88D-08 at cycle  11 NSaved=  11.
 NSaved=11 IEnMin=10 EnMin= -633.325297178286     IErMin=11 ErrMin= 4.88D-08
 ErrMax= 4.88D-08  0.00D+00 EMaxC= 1.00D-01 BMatC= 6.06D-13 BMatP= 1.84D-12
 IDIUse=1 WtCom= 1.00D+00 WtEn= 0.00D+00
 Coeff-Com: -0.486D-04 0.411D-04-0.137D-03 0.139D-02 0.344D-02 0.101D-02
 Coeff-Com: -0.115D-01-0.620D-01-0.644D-02 0.403D+00 0.672D+00
 Coeff:     -0.486D-04 0.411D-04-0.137D-03 0.139D-02 0.344D-02 0.101D-02
 Coeff:     -0.115D-01-0.620D-01-0.644D-02 0.403D+00 0.672D+00
 Gap=     0.226 Goal=   None    Shift=    0.000
 RMSDP=9.68D-09 MaxDP=4.49D-07 DE= 4.32D-12 OVMax= 7.69D-07

 Error on total polarization charges =  0.00922
 SCF Done:  E(RCAM-B3LYP) =  -633.325297178     A.U. after   11 cycles
            NFock= 11  Conv=0.97D-08     -V/T= 2.0041
 KE= 6.307210094067D+02 PE=-3.276668917182D+03 EE= 1.112289313381D+03
 Leave Link  502 at Fri Jan 23 22:43:17 2026, MaxMem=  2147483648 cpu:             721.3 elap:              45.9
 (Enter /data/home/wyx/g16/l601.exe)
 Copying SCF densities to generalized density rwf, IOpCl= 0 IROHF=0.

 **********************************************************************

            Population analysis using the SCF density.

 **********************************************************************

 Orbital symmetries:
       Occupied  (A) (A) (A) (A) (A) (A) (A) (A) (A) (A) (A) (A)
                 (A) (A) (A) (A) (A) (A) (A) (A) (A) (A) (A) (A)
                 (A) (A) (A) (A) (A) (A) (A) (A) (A) (A) (A) (A)
                 (A) (A) (A) (A) (A) (A) (A) (A) (A) (A) (A) (A)
                 (A) (A) (A) (A)
       Virtual   (A) (A) (A) (A) (A) (A) (A) (A) (A) (A) (A) (A)
                 (A) (A) (A) (A) (A) (A) (A) (A) (A) (A) (A) (A)
                 (A) (A) (A) (A) (A) (A) (A) (A) (A) (A) (A) (A)
                 (A) (A) (A) (A) (A) (A) (A) (A) (A) (A) (A) (A)
                 (A) (A) (A) (A) (A) (A) (A) (A) (A) (A) (A) (A)
                 (A) (A) (A) (A) (A) (A) (A) (A) (A) (A) (A) (A)
                 (A) (A) (A) (A) (A) (A) (A) (A) (A) (A) (A) (A)
                 (A) (A) (A) (A) (A) (A) (A) (A) (A) (A) (A) (A)
                 (A) (A) (A) (A) (A) (A) (A) (A) (A) (A) (A) (A)
                 (A) (A) (A) (A) (A) (A) (A) (A) (A) (A) (A) (A)
                 (A) (A) (A) (A) (A) (A) (A) (A) (A) (A) (A) (A)
                 (A) (A) (A) (A) (A) (A) (A) (A) (A) (A) (A) (A)
                 (A) (A) (A) (A) (A) (A) (A) (A) (A) (A) (A) (A)
                 (A) (A) (A) (A) (A) (A) (A) (A) (A) (A) (A) (A)
                 (A) (A) (A) (A) (A) (A) (A) (A) (A) (A) (A) (A)
                 (A) (A) (A) (A) (A) (A) (A) (A) (A) (A) (A) (A)
                 (A) (A) (A) (A) (A) (A) (A) (A) (A) (A) (A) (A)
                 (A) (A) (A) (A) (A) (A) (A) (A) (A) (A) (A) (A)
                 (A) (A) (A) (A) (A) (A) (A) (A) (A) (A) (A) (A)
                 (A) (A) (A) (A) (A) (A) (A) (A) (A) (A) (A) (A)
                 (A) (A) (A) (A) (A) (A) (A) (A) (A) (A) (A) (A)
                 (A) (A) (A) (A) (A) (A) (A) (A) (A) (A) (A) (A)
                 (A) (A) (A) (A) (A) (A) (A) (A) (A) (A) (A) (A)
                 (A) (A) (A) (A) (A) (A) (A) (A) (A) (A) (A) (A)
                 (A) (A) (A) (A) (A) (A) (A) (A) (A) (A) (A) (A)
                 (A) (A) (A) (A)
 The electronic state is 1-A.
 Alpha  occ. eigenvalues --  -19.17815 -19.16973 -14.44354 -10.33366 -10.32737
 Alpha  occ. eigenvalues --  -10.32407 -10.31728 -10.26078 -10.25146 -10.24814
 Alpha  occ. eigenvalues --  -10.24437 -10.24359 -10.24334 -10.23483  -1.11672
 Alpha  occ. eigenvalues --   -1.11105  -1.07981  -0.91319  -0.90293  -0.83901
 Alpha  occ. eigenvalues --   -0.82596  -0.81692  -0.78491  -0.73800  -0.71703
 Alpha  occ. eigenvalues --   -0.68584  -0.61549  -0.58226  -0.56896  -0.55093
 Alpha  occ. eigenvalues --   -0.54524  -0.53966  -0.52532  -0.51840  -0.50820
 Alpha  occ. eigenvalues --   -0.49823  -0.49491  -0.49215  -0.48634  -0.48007
 Alpha  occ. eigenvalues --   -0.47019  -0.45216  -0.45141  -0.43645  -0.43100
 Alpha  occ. eigenvalues --   -0.42250  -0.42069  -0.41675  -0.32627  -0.32158
 Alpha  occ. eigenvalues --   -0.31083  -0.25387
 Alpha virt. eigenvalues --   -0.02760   0.02643   0.06338   0.08219   0.08448
 Alpha virt. eigenvalues --    0.09888   0.10816   0.11825   0.12613   0.13512
 Alpha virt. eigenvalues --    0.14056   0.14849   0.15673   0.16312   0.16959
 Alpha virt. eigenvalues --    0.17609   0.17818   0.18075   0.18281   0.19260
 Alpha virt. eigenvalues --    0.19951   0.22161   0.22929   0.23567   0.23836
 Alpha virt. eigenvalues --    0.23883   0.24832   0.25695   0.26228   0.26700
 Alpha virt. eigenvalues --    0.27184   0.27917   0.28702   0.29216   0.30209
 Alpha virt. eigenvalues --    0.31772   0.32044   0.32526   0.33594   0.34539
 Alpha virt. eigenvalues --    0.35034   0.36070   0.36776   0.38213   0.38605
 Alpha virt. eigenvalues --    0.39872   0.41162   0.41572   0.42113   0.42633
 Alpha virt. eigenvalues --    0.44090   0.44709   0.45579   0.46194   0.46423
 Alpha virt. eigenvalues --    0.47314   0.47827   0.48189   0.48336   0.49128
 Alpha virt. eigenvalues --    0.49561   0.50675   0.51088   0.51512   0.51708
 Alpha virt. eigenvalues --    0.52824   0.53064   0.53459   0.53990   0.54307
 Alpha virt. eigenvalues --    0.54566   0.55629   0.56165   0.56735   0.58421
 Alpha virt. eigenvalues --    0.58583   0.59567   0.61082   0.61300   0.63020
 Alpha virt. eigenvalues --    0.63808   0.65653   0.66511   0.66673   0.67947
 Alpha virt. eigenvalues --    0.68689   0.69926   0.71233   0.72016   0.72571
 Alpha virt. eigenvalues --    0.73290   0.74254   0.74894   0.75976   0.77901
 Alpha virt. eigenvalues --    0.78927   0.80046   0.82905   0.85800   0.86721
 Alpha virt. eigenvalues --    0.90347   0.94488   1.01308   1.03102   1.23178
 Alpha virt. eigenvalues --    1.25019   1.27139   1.28209   1.29501   1.31151
 Alpha virt. eigenvalues --    1.32608   1.32887   1.34202   1.35008   1.36188
 Alpha virt. eigenvalues --    1.36598   1.37660   1.38425   1.39033   1.39901
 Alpha virt. eigenvalues --    1.39987   1.40735   1.40776   1.41410   1.41890
 Alpha virt. eigenvalues --    1.43590   1.43955   1.44373   1.45296   1.47415
 Alpha virt. eigenvalues --    1.48175   1.49685   1.49860   1.50433   1.51116
 Alpha virt. eigenvalues --    1.51402   1.52637   1.52905   1.55062   1.58165
 Alpha virt. eigenvalues --    1.58865   1.60654   1.60831   1.61474   1.62582
 Alpha virt. eigenvalues --    1.62711   1.63401   1.64221   1.64622   1.65968
 Alpha virt. eigenvalues --    1.66755   1.67199   1.67640   1.68233   1.68525
 Alpha virt. eigenvalues --    1.69020   1.69962   1.70222   1.71446   1.72424
 Alpha virt. eigenvalues --    1.73999   1.75221   1.76172   1.76699   1.78801
 Alpha virt. eigenvalues --    1.81083   1.83013   1.84152   1.86001   1.86638
 Alpha virt. eigenvalues --    1.86834   1.88001   1.88675   1.88891   1.90561
 Alpha virt. eigenvalues --    1.91287   1.94685   1.95224   1.98986   1.99859
 Alpha virt. eigenvalues --    2.01418   2.03960   2.05334   2.06881   2.09736
 Alpha virt. eigenvalues --    2.10969   2.12457   2.15328   2.17490   2.19791
 Alpha virt. eigenvalues --    2.20333   2.21356   2.22070   2.23085   2.26339
 Alpha virt. eigenvalues --    2.27339   2.27610   2.29405   2.31386   2.32361
 Alpha virt. eigenvalues --    2.33885   2.34470   2.36943   2.37949   2.38720
 Alpha virt. eigenvalues --    2.39678   2.40407   2.41676   2.43212   2.45117
 Alpha virt. eigenvalues --    2.46176   2.48004   2.49993   2.50686   2.51449
 Alpha virt. eigenvalues --    2.52317   2.54186   2.55038   2.56749   2.57965
 Alpha virt. eigenvalues --    2.58981   2.60795   2.61727   2.62713   2.63301
 Alpha virt. eigenvalues --    2.64720   2.65923   2.66896   2.67431   2.68716
 Alpha virt. eigenvalues --    2.71968   2.72156   2.73425   2.74376   2.75591
 Alpha virt. eigenvalues --    2.75901   2.76877   2.77413   2.78101   2.79353
 Alpha virt. eigenvalues --    2.80765   2.82022   2.83332   2.84151   2.84527
 Alpha virt. eigenvalues --    2.85675   2.86522   2.88617   2.89770   2.91979
 Alpha virt. eigenvalues --    2.97650   2.99655   3.00874   3.05925   3.10943
 Alpha virt. eigenvalues --    3.12428   3.15423   3.17343   3.18563   3.21480
 Alpha virt. eigenvalues --    3.21632   3.23740   3.24557   3.26034   3.27200
 Alpha virt. eigenvalues --    3.27884   3.30120   3.33346   3.34649   3.36649
 Alpha virt. eigenvalues --    3.37712   3.38870   3.39872   3.40272   3.42114
 Alpha virt. eigenvalues --    3.42400   3.44587   3.45447   3.47682   3.48446
 Alpha virt. eigenvalues --    3.49620   3.49876   3.55508   3.58658   3.60174
 Alpha virt. eigenvalues --    3.60983   3.90937   4.00561   4.33859   4.36643
 Alpha virt. eigenvalues --   21.66185  21.80571  22.08445  22.10859  22.11928
 Alpha virt. eigenvalues --   22.15139  22.15347  22.18965  22.20088  22.24991
 Alpha virt. eigenvalues --   22.28968  31.92281  43.63671  43.66460
          Condensed to atoms (all electrons):
               1          2          3          4          5          6
     1  O    7.933569   0.000000  -0.000206   0.000019   0.017808   0.012144
     2  O    0.000000   7.975858   0.000427   0.000022  -0.197607   0.001170
     3  N   -0.000206   0.000427   6.376603   0.371065  -0.117231   0.328658
     4  H    0.000019   0.000022   0.371065   0.410792   0.016665  -0.046603
     5  C    0.017808  -0.197607  -0.117231   0.016665   7.062015  -0.078864
     6  C    0.012144   0.001170   0.328658  -0.046603  -0.078864   5.585526
     7  C   -0.000235  -0.043057   0.388628  -0.037632   0.439365  -0.110906
     8  C   -0.000490   0.709116   0.004428  -0.000791  -0.297153   0.030611
     9  C   -0.014610   0.022930   0.012615   0.000011  -0.611636  -0.068400
    10  H    0.011571  -0.000014  -0.001378   0.000020  -0.119046   0.027980
    11  H    0.005775   0.000124   0.003761   0.000028  -0.038658  -0.018948
    12  C   -0.227258  -0.002754  -0.087537   0.014841   0.183796  -0.118943
    13  C    0.717887  -0.000021   0.001278   0.000490   0.079110   0.148035
    14  C   -0.000007  -0.006654  -0.034246  -0.010163  -0.083663   0.011409
    15  H   -0.000000   0.004263   0.004521   0.001855   0.019340   0.006463
    16  H    0.000000   0.002086   0.000337   0.000787  -0.006839  -0.001060
    17  H   -0.000000   0.002542  -0.002522   0.000928  -0.006357  -0.001663
    18  C    0.000112  -0.104125  -0.000550   0.000020  -0.264795   0.000357
    19  H   -0.000002   0.008355   0.000003  -0.000001   0.024222   0.000024
    20  H    0.000115   0.003945   0.000120   0.000001   0.045035  -0.001209
    21  H    0.000005   0.000910   0.000013  -0.000001   0.003145   0.000224
    22  C   -0.106714   0.000000  -0.000112   0.000120   0.004177  -0.016021
    23  H    0.001360   0.000000  -0.000005  -0.000014  -0.000034   0.009805
    24  H    0.004907  -0.000000   0.000066  -0.000054  -0.000650  -0.029756
    25  H    0.007179   0.000000   0.000027  -0.000003  -0.000153  -0.001061
    26  C    0.000838   0.000007  -0.027529  -0.006410   0.000503   0.181667
    27  H   -0.000051  -0.000000  -0.002484   0.000463   0.000398  -0.034763
    28  H   -0.000242  -0.000000   0.001903   0.000804  -0.000011  -0.046987
    29  H    0.000025   0.000000   0.001623   0.001528  -0.000387  -0.049357
               7          8          9         10         11         12
     1  O   -0.000235  -0.000490  -0.014610   0.011571   0.005775  -0.227258
     2  O   -0.043057   0.709116   0.022930  -0.000014   0.000124  -0.002754
     3  N    0.388628   0.004428   0.012615  -0.001378   0.003761  -0.087537
     4  H   -0.037632  -0.000791   0.000011   0.000020   0.000028   0.014841
     5  C    0.439365  -0.297153  -0.611636  -0.119046  -0.038658   0.183796
     6  C   -0.110906   0.030611  -0.068400   0.027980  -0.018948  -0.118943
     7  C    5.398894  -0.215951  -0.194987   0.017728  -0.006117   0.012301
     8  C   -0.215951   5.381984   0.152531  -0.009616  -0.003178  -0.043042
     9  C   -0.194987   0.152531   6.355013   0.540563   0.401106  -0.077083
    10  H    0.017728  -0.009616   0.540563   0.519949  -0.042009  -0.110121
    11  H   -0.006117  -0.003178   0.401106  -0.042009   0.562207  -0.013026
    12  C    0.012301  -0.043042  -0.077083  -0.110121  -0.013026   7.335469
    13  C    0.016085  -0.007930  -0.255493  -0.001371  -0.003739  -0.452216
    14  C    0.277641  -0.033685   0.008609   0.000558  -0.001131  -0.002523
    15  H   -0.081585   0.005520   0.000402  -0.000004   0.000053  -0.001422
    16  H   -0.026185  -0.007132  -0.000452  -0.000056   0.000190   0.000065
    17  H   -0.021392  -0.001968   0.000806   0.000058  -0.000065   0.000596
    18  C    0.000113   0.323360   0.003040   0.007982  -0.011082  -0.002777
    19  H    0.000339  -0.052986  -0.001205   0.000604   0.000026  -0.000175
    20  H    0.002844  -0.068265  -0.009984  -0.006397   0.002670   0.007116
    21  H    0.000035  -0.024228  -0.009209  -0.001513   0.000814  -0.002971
    22  C    0.000088  -0.000073   0.006665  -0.000012   0.002362  -0.261887
    23  H    0.000001   0.000003  -0.002196  -0.000123   0.000166  -0.010816
    24  H   -0.000011  -0.000000   0.003211   0.000013  -0.000171   0.066585
    25  H    0.000009   0.000003   0.000262  -0.000090  -0.000068   0.021537
    26  C    0.002955   0.000689   0.021933   0.000079  -0.000738  -0.081125
    27  H   -0.000808  -0.000012  -0.000315   0.000043  -0.000016  -0.018376
    28  H   -0.000729   0.000002  -0.000381   0.000009  -0.000106  -0.006980
    29  H    0.003285  -0.000006  -0.000567  -0.000013   0.000095   0.022637
              13         14         15         16         17         18
     1  O    0.717887  -0.000007  -0.000000   0.000000  -0.000000   0.000112
     2  O   -0.000021  -0.006654   0.004263   0.002086   0.002542  -0.104125
     3  N    0.001278  -0.034246   0.004521   0.000337  -0.002522  -0.000550
     4  H    0.000490  -0.010163   0.001855   0.000787   0.000928   0.000020
     5  C    0.079110  -0.083663   0.019340  -0.006839  -0.006357  -0.264795
     6  C    0.148035   0.011409   0.006463  -0.001060  -0.001663   0.000357
     7  C    0.016085   0.277641  -0.081585  -0.026185  -0.021392   0.000113
     8  C   -0.007930  -0.033685   0.005520  -0.007132  -0.001968   0.323360
     9  C   -0.255493   0.008609   0.000402  -0.000452   0.000806   0.003040
    10  H   -0.001371   0.000558  -0.000004  -0.000056   0.000058   0.007982
    11  H   -0.003739  -0.001131   0.000053   0.000190  -0.000065  -0.011082
    12  C   -0.452216  -0.002523  -0.001422   0.000065   0.000596  -0.002777
    13  C    5.522605   0.000050  -0.000034  -0.000003  -0.000011   0.000959
    14  C    0.000050   5.045995   0.389351   0.419132   0.408014   0.001458
    15  H   -0.000034   0.389351   0.579844  -0.027785  -0.026163   0.000260
    16  H   -0.000003   0.419132  -0.027785   0.509797  -0.026547  -0.000191
    17  H   -0.000011   0.408014  -0.026163  -0.026547   0.509320   0.000026
    18  C    0.000959   0.001458   0.000260  -0.000191   0.000026   5.334769
    19  H   -0.000012   0.000051  -0.000005   0.000035  -0.000030   0.394268
    20  H    0.000701   0.000060  -0.000015  -0.000034   0.000003   0.380707
    21  H   -0.000120  -0.000242  -0.000006   0.000017  -0.000008   0.398010
    22  C    0.287456  -0.000018   0.000002  -0.000000   0.000000   0.000031
    23  H   -0.023250  -0.000001   0.000000  -0.000000   0.000000  -0.000002
    24  H   -0.095966   0.000001   0.000000   0.000000   0.000000   0.000002
    25  H   -0.038237   0.000000   0.000000   0.000000  -0.000000  -0.000001
    26  C   -0.055191   0.000969   0.000174   0.000040  -0.000123   0.000016
    27  H    0.006542  -0.000112  -0.000002   0.000004  -0.000007  -0.000000
    28  H   -0.003601   0.000079  -0.000010  -0.000002   0.000001  -0.000000
    29  H   -0.000962  -0.000220   0.000114  -0.000003   0.000001   0.000000
              19         20         21         22         23         24
     1  O   -0.000002   0.000115   0.000005  -0.106714   0.001360   0.004907
     2  O    0.008355   0.003945   0.000910   0.000000   0.000000  -0.000000
     3  N    0.000003   0.000120   0.000013  -0.000112  -0.000005   0.000066
     4  H   -0.000001   0.000001  -0.000001   0.000120  -0.000014  -0.000054
     5  C    0.024222   0.045035   0.003145   0.004177  -0.000034  -0.000650
     6  C    0.000024  -0.001209   0.000224  -0.016021   0.009805  -0.029756
     7  C    0.000339   0.002844   0.000035   0.000088   0.000001  -0.000011
     8  C   -0.052986  -0.068265  -0.024228  -0.000073   0.000003  -0.000000
     9  C   -0.001205  -0.009984  -0.009209   0.006665  -0.002196   0.003211
    10  H    0.000604  -0.006397  -0.001513  -0.000012  -0.000123   0.000013
    11  H    0.000026   0.002670   0.000814   0.002362   0.000166  -0.000171
    12  C   -0.000175   0.007116  -0.002971  -0.261887  -0.010816   0.066585
    13  C   -0.000012   0.000701  -0.000120   0.287456  -0.023250  -0.095966
    14  C    0.000051   0.000060  -0.000242  -0.000018  -0.000001   0.000001
    15  H   -0.000005  -0.000015  -0.000006   0.000002   0.000000   0.000000
    16  H    0.000035  -0.000034   0.000017  -0.000000  -0.000000   0.000000
    17  H   -0.000030   0.000003  -0.000008   0.000000   0.000000   0.000000
    18  C    0.394268   0.380707   0.398010   0.000031  -0.000002   0.000002
    19  H    0.507872  -0.023873  -0.010133  -0.000000   0.000000   0.000000
    20  H   -0.023873   0.536997  -0.024477   0.000024  -0.000000  -0.000000
    21  H   -0.010133  -0.024477   0.496807  -0.000012   0.000000  -0.000000
    22  C   -0.000000   0.000024  -0.000012   5.428584   0.401130   0.396426
    23  H    0.000000  -0.000000   0.000000   0.401130   0.495990  -0.027637
    24  H    0.000000  -0.000000  -0.000000   0.396426  -0.027637   0.545960
    25  H   -0.000000  -0.000000   0.000000   0.383851  -0.007960  -0.022275
    26  C    0.000000  -0.000017   0.000004  -0.030837  -0.012426   0.016530
    27  H    0.000000  -0.000000  -0.000000  -0.010860   0.001007  -0.001683
    28  H   -0.000000  -0.000000   0.000000   0.006227  -0.000274  -0.008576
    29  H    0.000000   0.000000  -0.000000   0.001982   0.000196   0.000657
              25         26         27         28         29
     1  O    0.007179   0.000838  -0.000051  -0.000242   0.000025
     2  O    0.000000   0.000007  -0.000000  -0.000000   0.000000
     3  N    0.000027  -0.027529  -0.002484   0.001903   0.001623
     4  H   -0.000003  -0.006410   0.000463   0.000804   0.001528
     5  C   -0.000153   0.000503   0.000398  -0.000011  -0.000387
     6  C   -0.001061   0.181667  -0.034763  -0.046987  -0.049357
     7  C    0.000009   0.002955  -0.000808  -0.000729   0.003285
     8  C    0.000003   0.000689  -0.000012   0.000002  -0.000006
     9  C    0.000262   0.021933  -0.000315  -0.000381  -0.000567
    10  H   -0.000090   0.000079   0.000043   0.000009  -0.000013
    11  H   -0.000068  -0.000738  -0.000016  -0.000106   0.000095
    12  C    0.021537  -0.081125  -0.018376  -0.006980   0.022637
    13  C   -0.038237  -0.055191   0.006542  -0.003601  -0.000962
    14  C    0.000000   0.000969  -0.000112   0.000079  -0.000220
    15  H    0.000000   0.000174  -0.000002  -0.000010   0.000114
    16  H    0.000000   0.000040   0.000004  -0.000002  -0.000003
    17  H   -0.000000  -0.000123  -0.000007   0.000001   0.000001
    18  C   -0.000001   0.000016  -0.000000  -0.000000   0.000000
    19  H   -0.000000   0.000000   0.000000  -0.000000   0.000000
    20  H   -0.000000  -0.000017  -0.000000  -0.000000   0.000000
    21  H    0.000000   0.000004  -0.000000   0.000000  -0.000000
    22  C    0.383851  -0.030837  -0.010860   0.006227   0.001982
    23  H   -0.007960  -0.012426   0.001007  -0.000274   0.000196
    24  H   -0.022275   0.016530  -0.001683  -0.008576   0.000657
    25  H    0.493949   0.001878   0.000118   0.000705  -0.000039
    26  C    0.001878   5.252746   0.428365   0.429453   0.390129
    27  H    0.000118   0.428365   0.483083  -0.027215  -0.017957
    28  H    0.000705   0.429453  -0.027215   0.509930  -0.025820
    29  H   -0.000039   0.390129  -0.017957  -0.025820   0.517851
 Mulliken charges:
               1
     1  O   -0.363498
     2  O   -0.377524
     3  N   -0.222278
     4  H    0.281211
     5  C   -0.072496
     6  C    0.280468
     7  C    0.179284
     8  C    0.158260
     9  C   -0.283177
    10  H    0.164606
    11  H    0.159676
    12  C   -0.143909
    13  C    0.156961
    14  C   -0.390711
    15  H    0.124868
    16  H    0.163800
    17  H    0.164559
    18  C   -0.461967
    19  H    0.152624
    20  H    0.153934
    21  H    0.172936
    22  C   -0.492579
    23  H    0.175080
    24  H    0.152421
    25  H    0.160368
    26  C   -0.514581
    27  H    0.194639
    28  H    0.171819
    29  H    0.155208
 Sum of Mulliken charges =  -0.00000
 Mulliken charges with hydrogens summed into heavy atoms:
               1
     1  O   -0.363498
     2  O   -0.377524
     3  N    0.058933
     5  C   -0.072496
     6  C    0.280468
     7  C    0.179284
     8  C    0.158260
     9  C    0.041104
    12  C   -0.143909
    13  C    0.156961
    14  C    0.062516
    18  C    0.017526
    22  C   -0.004710
    26  C    0.007086
 Electronic spatial extent (au):  <R**2>=           3195.2459
 Charge=             -0.0000 electrons
 Dipole moment (field-independent basis, Debye):
    X=              3.8961    Y=              7.3472    Z=             -0.0680  Tot=              8.3166
 Quadrupole moment (field-independent basis, Debye-Ang):
   XX=            -98.5398   YY=            -78.3658   ZZ=            -84.8879
   XY=             12.2949   XZ=              4.5996   YZ=             -1.9420
 Traceless Quadrupole moment (field-independent basis, Debye-Ang):
   XX=            -11.2753   YY=              8.8987   ZZ=              2.3766
   XY=             12.2949   XZ=              4.5996   YZ=             -1.9420
 Octapole moment (field-independent basis, Debye-Ang**2):
  XXX=            107.6051  YYY=             63.2750  ZZZ=              1.4755  XYY=            -34.5778
  XXY=             30.9924  XXZ=             -7.1102  XZZ=              1.1033  YZZ=             -1.4052
  YYZ=              3.9760  XYZ=             -5.2053
 Hexadecapole moment (field-independent basis, Debye-Ang**3):
 XXXX=          -3057.3537 YYYY=          -1284.9586 ZZZZ=           -147.7759 XXXY=             33.5065
 XXXZ=             51.5096 YYYX=             87.0656 YYYZ=            -20.3332 ZZZX=             -3.4183
 ZZZY=              3.7389 XXYY=           -692.0610 XXZZ=           -482.2669 YYZZ=           -243.9014
 XXYZ=             -8.6323 YYXZ=              8.4506 ZZXY=             -0.7067
 N-N= 9.003332972152D+02 E-N=-3.276668913108D+03  KE= 6.307210094067D+02
 No NMR shielding tensors so no spin-rotation constants.
 Leave Link  601 at Fri Jan 23 22:43:17 2026, MaxMem=  2147483648 cpu:               1.8 elap:               0.1
 (Enter /data/home/wyx/g16/l9999.exe)
 1\1\GINC-CN012\SP\RCAM-B3LYP\TZVP\C11H15N1O2\WYX\23-Jan-2026\0\\#p CAM
 -B3LYP TZVP em=gd3bj scrf=(Solvent=TetraHydroFuran,NonEquilibrium=Read
 ) Geom=Check Guess=Read\\Title Card Required\\0,1\O,0,2.838096,-1.5695
 81,0.089297\O,0,-3.425778,-1.636137,-0.043006\N,0,-0.651273,1.514771,-
 0.267211\H,0,-0.961903,2.473776,-0.31881\C,0,-1.243702,-0.760081,-0.21
 1176\C,0,0.688981,1.318527,-0.060953\C,0,-1.625859,0.563866,-0.262867\
 C,0,-2.217424,-1.837929,-0.145253\C,0,0.205812,-1.095541,-0.263989\H,0
 ,0.434483,-1.919777,0.415412\H,0,0.458048,-1.519871,-1.249425\C,0,1.14
 9238,0.024603,0.016439\C,0,2.51584,-0.398181,0.295273\C,0,-3.013957,1.
 097582,-0.32588\H,0,-3.014985,2.170504,-0.509125\H,0,-3.587772,0.61107
 1,-1.107245\H,0,-3.547278,0.909896,0.601895\C,0,-1.720071,-3.257102,-0
 .187923\H,0,-2.548827,-3.926017,-0.38976\H,0,-0.949656,-3.412949,-0.93
 7087\H,0,-1.288883,-3.538985,0.771362\C,0,3.550838,0.534848,0.875152\H
 ,0,4.060762,1.081539,0.079529\H,0,3.133945,1.25781,1.571424\H,0,4.2927
 95,-0.073911,1.386936\C,0,1.467949,2.589038,0.028789\H,0,1.627473,2.89
 5046,1.062506\H,0,2.437739,2.504382,-0.446711\H,0,0.935366,3.398806,-0
 .467591\\Version=ES64L-G16RevA.03\State=1-A\HF=-633.3252972\RMSD=9.682
 e-09\Dipole=0.4761146,3.2370927,-0.0214166\Quadrupole=-13.1189847,10.7
 026385,2.4163463,2.3957757,1.9818073,-0.0722909\PG=C01 [X(C11H15N1O2)]
 \\@


 IN THE WOODS WE RETURN TO REASON AND FAITH.

                                 -- EMERSON
 Job cpu time:       0 days  0 hours 12 minutes 11.7 seconds.
 Elapsed time:       0 days  0 hours  0 minutes 46.7 seconds.
 File lengths (MBytes):  RWF=    343 Int=      0 D2E=      0 Chk=     67 Scr=      1
 Normal termination of Gaussian 16 at Fri Jan 23 22:43:18 2026.
