 Entering Gaussian System, Link 0=g16
 Input=DDL-LR-Eq-13.gjf
 Output=DDL-LR-Eq-13.log
 Initial command:
 /data/home/wyx/g16/l1.exe "/scr/tmp/wyx/13106/Gau-1967851.inp" -scrdir="/scr/tmp/wyx/13106/"
 Entering Link 1 = /data/home/wyx/g16/l1.exe PID=   1967852.
  
 Copyright (c) 1988,1990,1992,1993,1995,1998,2003,2009,2016,
            Gaussian, Inc.  All Rights Reserved.
  
 This is part of the Gaussian(R) 16 program.  It is based on
 the Gaussian(R) 09 system (copyright 2009, Gaussian, Inc.),
 the Gaussian(R) 03 system (copyright 2003, Gaussian, Inc.),
 the Gaussian(R) 98 system (copyright 1998, Gaussian, Inc.),
 the Gaussian(R) 94 system (copyright 1995, Gaussian, Inc.),
 the Gaussian 92(TM) system (copyright 1992, Gaussian, Inc.),
 the Gaussian 90(TM) system (copyright 1990, Gaussian, Inc.),
 the Gaussian 88(TM) system (copyright 1988, Gaussian, Inc.),
 the Gaussian 86(TM) system (copyright 1986, Carnegie Mellon
 University), and the Gaussian 82(TM) system (copyright 1983,
 Carnegie Mellon University). Gaussian is a federally registered
 trademark of Gaussian, Inc.
  
 This software contains proprietary and confidential information,
 including trade secrets, belonging to Gaussian, Inc.
  
 This software is provided under written license and may be
 used, copied, transmitted, or stored only in accord with that
 written license.
  
 The following legend is applicable only to US Government
 contracts under FAR:
  
                    RESTRICTED RIGHTS LEGEND
  
 Use, reproduction and disclosure by the US Government is
 subject to restrictions as set forth in subparagraphs (a)
 and (c) of the Commercial Computer Software - Restricted
 Rights clause in FAR 52.227-19.
  
 Gaussian, Inc.
 340 Quinnipiac St., Bldg. 40, Wallingford CT 06492
  
  
 ---------------------------------------------------------------
 Warning -- This program may not be used in any manner that
 competes with the business of Gaussian, Inc. or will provide
 assistance to any competitor of Gaussian, Inc.  The licensee
 of this program is prohibited from giving any competitor of
 Gaussian, Inc. access to this program.  By using this program,
 the user acknowledges that Gaussian, Inc. is engaged in the
 business of creating and licensing software in the field of
 computational chemistry and represents and warrants to the
 licensee that it is not a competitor of Gaussian, Inc. and that
 it will not use this program in any manner prohibited above.
 ---------------------------------------------------------------
  

 Cite this work as:
 Gaussian 16, Revision A.03,
 M. J. Frisch, G. W. Trucks, H. B. Schlegel, G. E. Scuseria, 
 M. A. Robb, J. R. Cheeseman, G. Scalmani, V. Barone, 
 G. A. Petersson, H. Nakatsuji, X. Li, M. Caricato, A. V. Marenich, 
 J. Bloino, B. G. Janesko, R. Gomperts, B. Mennucci, H. P. Hratchian, 
 J. V. Ortiz, A. F. Izmaylov, J. L. Sonnenberg, D. Williams-Young, 
 F. Ding, F. Lipparini, F. Egidi, J. Goings, B. Peng, A. Petrone, 
 T. Henderson, D. Ranasinghe, V. G. Zakrzewski, J. Gao, N. Rega, 
 G. Zheng, W. Liang, M. Hada, M. Ehara, K. Toyota, R. Fukuda, 
 J. Hasegawa, M. Ishida, T. Nakajima, Y. Honda, O. Kitao, H. Nakai, 
 T. Vreven, K. Throssell, J. A. Montgomery, Jr., J. E. Peralta, 
 F. Ogliaro, M. J. Bearpark, J. J. Heyd, E. N. Brothers, K. N. Kudin, 
 V. N. Staroverov, T. A. Keith, R. Kobayashi, J. Normand, 
 K. Raghavachari, A. P. Rendell, J. C. Burant, S. S. Iyengar, 
 J. Tomasi, M. Cossi, J. M. Millam, M. Klene, C. Adamo, R. Cammi, 
 J. W. Ochterski, R. L. Martin, K. Morokuma, O. Farkas, 
 J. B. Foresman, and D. J. Fox, Gaussian, Inc., Wallingford CT, 2016.
 
 ******************************************
 Gaussian 16:  ES64L-G16RevA.03 25-Dec-2016
                23-Jan-2026 
 ******************************************
 %nprocshared=16
 Will use up to   16 processors via shared memory.
 %mem=16GB
 %oldchk=DDL-LR-13.chk
 %chk=DDL-LR-Eq-13.chk
 Copying data from "DDL-LR-13.chk" to current chk file "DDL-LR-Eq-13.chk"
 IOpt=  2 FromEx=T IUOpen= 4 IOptOp= 5 NList=   0 IFRang= 0 IUIn= 4 IUOut= 2.
 ----------------------------------------------------------------------
 #p CAM-B3LYP TZVP em=gd3bj td(Eqsolv,nstates=6,root=1) scrf=(Solvent=T
 etraHydroFuran) Geom=Check Guess=Read
 ----------------------------------------------------------------------
 1/29=2,38=1,172=1/1;
 2/12=2,40=1/2;
 3/5=19,7=101,11=9,14=-4,25=1,30=1,70=2201,72=20,74=-40,116=-2,124=41/1,2,3,8;
 4/5=1/1;
 5/5=2,38=6,53=20/2;
 8/6=1,10=1,107=1,108=6/1;
 9/8=1,41=6,42=1,70=2,73=2/14;
 6/7=2,8=2,9=2,10=2/1;
 99/5=1,9=1/99;
 Leave Link    1 at Fri Jan 23 16:18:41 2026, MaxMem=  2147483648 cpu:               0.8 elap:               0.4
 (Enter /data/home/wyx/g16/l101.exe)
 -------------------
 Title Card Required
 -------------------
 Structure from the checkpoint file:  "DDL-LR-Eq-13.chk"
 Charge =  0 Multiplicity = 1
 Z-Matrix found in chk file.
 O,0,2.835855,-1.565559,0.140749
 O,0,-3.420622,-1.623623,0.055146
 N,0,-0.637726,1.511206,-0.348608
 H,0,-0.946975,2.468788,-0.402347
 C,0,-1.238627,-0.757933,-0.221327
 C,0,0.699087,1.302599,-0.098194
 C,0,-1.613688,0.549488,-0.287498
 C,0,-2.222736,-1.829948,-0.107701
 C,0,0.217406,-1.109002,-0.338689
 H,0,0.462263,-1.950341,0.308273
 H,0,0.44144,-1.476815,-1.350144
 C,0,1.151045,0.022948,-0.008595
 C,0,2.513242,-0.394503,0.3205
 C,0,-3.003807,1.089688,-0.302554
 H,0,-3.006462,2.146982,-0.563436
 H,0,-3.628662,0.549404,-1.005601
 H,0,-3.472467,0.975425,0.672511
 C,0,-1.728746,-3.250141,-0.190002
 H,0,-2.575128,-3.921532,-0.289464
 H,0,-1.047331,-3.400214,-1.024576
 H,0,-1.183133,-3.515677,0.715296
 C,0,3.535099,0.542021,0.918365
 H,0,4.049104,1.096088,0.130895
 H,0,3.103883,1.258365,1.612781
 H,0,4.275366,-0.064516,1.434805
 C,0,1.467934,2.579096,0.032955
 H,0,1.538383,2.893104,1.074588
 H,0,2.471446,2.498754,-0.365185
 H,0,0.964558,3.375848,-0.512946
 Recover connectivity data from disk.
 ITRead=  0  0  0  0  0  0  0  0  0  0  0  0  0  0  0  0  0  0  0  0
 ITRead=  0  0  0  0  0  0  0  0  0
 MicOpt= -1 -1 -1 -1 -1 -1 -1 -1 -1 -1 -1 -1 -1 -1 -1 -1 -1 -1 -1 -1
 MicOpt= -1 -1 -1 -1 -1 -1 -1 -1 -1
 NAtoms=     29 NQM=       29 NQMF=       0 NMMI=      0 NMMIF=      0
                NMic=       0 NMicF=      0.
                    Isotopes and Nuclear Properties:
 (Nuclear quadrupole moments (NQMom) in fm**2, nuclear magnetic moments (NMagM)
  in nuclear magnetons)

  Atom         1           2           3           4           5           6           7           8           9          10
 IAtWgt=          16          16          14           1          12          12          12          12          12           1
 AtmWgt=  15.9949146  15.9949146  14.0030740   1.0078250  12.0000000  12.0000000  12.0000000  12.0000000  12.0000000   1.0078250
 NucSpn=           0           0           2           1           0           0           0           0           0           1
 AtZEff=   5.6000000   5.6000000   4.5500000   1.0000000   3.6000000   3.6000000   3.6000000   3.6000000   3.6000000   1.0000000
 NQMom=    0.0000000   0.0000000   2.0440000   0.0000000   0.0000000   0.0000000   0.0000000   0.0000000   0.0000000   0.0000000
 NMagM=    0.0000000   0.0000000   0.4037610   2.7928460   0.0000000   0.0000000   0.0000000   0.0000000   0.0000000   2.7928460
 AtZNuc=   8.0000000   8.0000000   7.0000000   1.0000000   6.0000000   6.0000000   6.0000000   6.0000000   6.0000000   1.0000000

  Atom        11          12          13          14          15          16          17          18          19          20
 IAtWgt=           1          12          12          12           1           1           1          12           1           1
 AtmWgt=   1.0078250  12.0000000  12.0000000  12.0000000   1.0078250   1.0078250   1.0078250  12.0000000   1.0078250   1.0078250
 NucSpn=           1           0           0           0           1           1           1           0           1           1
 AtZEff=   1.0000000   3.6000000   3.6000000   3.6000000   1.0000000   1.0000000   1.0000000   3.6000000   1.0000000   1.0000000
 NQMom=    0.0000000   0.0000000   0.0000000   0.0000000   0.0000000   0.0000000   0.0000000   0.0000000   0.0000000   0.0000000
 NMagM=    2.7928460   0.0000000   0.0000000   0.0000000   2.7928460   2.7928460   2.7928460   0.0000000   2.7928460   2.7928460
 AtZNuc=   1.0000000   6.0000000   6.0000000   6.0000000   1.0000000   1.0000000   1.0000000   6.0000000   1.0000000   1.0000000

  Atom        21          22          23          24          25          26          27          28          29
 IAtWgt=           1          12           1           1           1          12           1           1           1
 AtmWgt=   1.0078250  12.0000000   1.0078250   1.0078250   1.0078250  12.0000000   1.0078250   1.0078250   1.0078250
 NucSpn=           1           0           1           1           1           0           1           1           1
 AtZEff=   1.0000000   3.6000000   1.0000000   1.0000000   1.0000000   3.6000000   1.0000000   1.0000000   1.0000000
 NQMom=    0.0000000   0.0000000   0.0000000   0.0000000   0.0000000   0.0000000   0.0000000   0.0000000   0.0000000
 NMagM=    2.7928460   0.0000000   2.7928460   2.7928460   2.7928460   0.0000000   2.7928460   2.7928460   2.7928460
 AtZNuc=   1.0000000   6.0000000   1.0000000   1.0000000   1.0000000   6.0000000   1.0000000   1.0000000   1.0000000
 Leave Link  101 at Fri Jan 23 16:18:45 2026, MaxMem=  2147483648 cpu:               0.9 elap:               0.1
 (Enter /data/home/wyx/g16/l202.exe)
                          Input orientation:                          
 ---------------------------------------------------------------------
 Center     Atomic      Atomic             Coordinates (Angstroms)
 Number     Number       Type             X           Y           Z
 ---------------------------------------------------------------------
      1          8           0        2.835855   -1.565559    0.140749
      2          8           0       -3.420622   -1.623623    0.055146
      3          7           0       -0.637726    1.511206   -0.348608
      4          1           0       -0.946975    2.468788   -0.402347
      5          6           0       -1.238627   -0.757933   -0.221327
      6          6           0        0.699087    1.302599   -0.098194
      7          6           0       -1.613688    0.549488   -0.287498
      8          6           0       -2.222736   -1.829948   -0.107701
      9          6           0        0.217406   -1.109002   -0.338689
     10          1           0        0.462263   -1.950341    0.308273
     11          1           0        0.441440   -1.476815   -1.350144
     12          6           0        1.151045    0.022948   -0.008595
     13          6           0        2.513242   -0.394503    0.320500
     14          6           0       -3.003807    1.089688   -0.302554
     15          1           0       -3.006462    2.146982   -0.563436
     16          1           0       -3.628662    0.549404   -1.005601
     17          1           0       -3.472467    0.975425    0.672511
     18          6           0       -1.728746   -3.250141   -0.190002
     19          1           0       -2.575128   -3.921532   -0.289464
     20          1           0       -1.047331   -3.400214   -1.024576
     21          1           0       -1.183133   -3.515677    0.715296
     22          6           0        3.535099    0.542021    0.918365
     23          1           0        4.049104    1.096088    0.130895
     24          1           0        3.103883    1.258365    1.612781
     25          1           0        4.275366   -0.064516    1.434805
     26          6           0        1.467934    2.579096    0.032955
     27          1           0        1.538383    2.893104    1.074588
     28          1           0        2.471446    2.498754   -0.365185
     29          1           0        0.964558    3.375848   -0.512946
 ---------------------------------------------------------------------
                    Distance matrix (angstroms):
                    1          2          3          4          5
     1  O    0.000000
     2  O    6.257332   0.000000
     3  N    4.666017   4.211256   0.000000
     4  H    5.557042   4.803754   1.007713   0.000000
     5  C    4.169504   2.363675   2.350803   3.244928   0.000000
     6  C    3.584578   5.055521   1.375970   2.040104   2.831199
     7  C    4.945225   2.846898   1.371546   2.035045   1.361763
     8  C    5.071585   1.226385   3.705888   4.493719   1.459657
     9  C    2.700848   3.695293   2.756236   3.763033   1.502350
    10  H    2.410407   3.904819   3.691040   4.692508   2.143674
    11  H    2.822031   4.112410   3.331057   4.288799   2.147940
    12  C    2.320397   4.859568   2.351642   3.246361   2.523007
    13  C    1.227909   6.065632   3.742731   4.549071   3.808173
    14  C    6.430280   2.768346   2.403776   2.478393   2.556592
    15  H    6.957838   3.843388   2.461965   2.090693   3.417720
    16  H    6.897620   2.427038   3.209735   3.352521   2.834869
    17  H    6.821605   2.671868   3.060311   3.124670   2.965387
    18  C    4.876761   2.359683   4.887321   5.776020   2.540138
    19  H    5.917299   2.472651   5.768160   6.595439   3.435002
    20  H    4.450065   3.155089   4.974611   5.902747   2.768294
    21  H    4.503924   3.003668   5.167099   6.092513   2.912987
    22  C    2.352769   7.336022   4.467327   5.054275   5.077129
    23  H    2.925138   7.949803   4.729548   5.208595   5.614406
    24  H    3.195820   7.300770   4.232093   4.683515   5.127066
    25  H    2.449470   7.972610   5.459115   6.088153   5.798941
    26  C    4.365890   6.446807   2.391607   2.456306   4.304172
    27  H    4.736577   6.784675   2.944585   2.922052   4.766681
    28  H    4.111861   7.203273   3.262281   3.418754   4.938760
    29  H    5.324150   6.674372   2.463983   2.118714   4.693316
                    6          7          8          9         10
     6  C    0.000000
     7  C    2.439660   0.000000
     8  C    4.283689   2.462718   0.000000
     9  C    2.470966   2.471055   2.554880   0.000000
    10  H    3.286780   3.303583   2.719696   1.089204   0.000000
    11  H    3.059232   3.075495   2.960777   1.099327   1.724821
    12  C    1.360074   2.828211   3.850382   1.503980   2.113929
    13  C    2.519250   4.276954   4.967227   2.493171   2.574354
    14  C    3.714636   1.491467   3.028583   3.900225   4.650648
    15  H    3.828907   2.137276   4.078957   4.587512   5.438749
    16  H    4.485544   2.139110   2.905885   4.241146   4.970982
    17  H    4.254749   2.134970   3.168703   4.356894   4.916795
    18  C    5.160450   3.802621   1.505904   2.897256   2.595819
    19  H    6.168356   4.573225   2.128836   3.963710   3.669963
    20  H    5.101432   4.057609   2.165173   2.705486   2.481429
    21  H    5.236440   4.209102   2.144710   2.977327   2.307222
    22  C    3.107223   5.288116   6.311237   3.913202   4.003299
    23  H    3.364185   5.704475   6.924925   4.445767   4.709312
    24  H    2.951684   5.135080   6.393012   4.212412   4.356110
    25  H    4.124180   6.166384   6.908068   4.550085   4.400587
    26  C    1.495918   3.703835   5.751565   3.912034   4.647900
    27  H    2.146984   4.157327   6.152320   4.445130   5.020382
    28  H    2.154838   4.527029   6.390564   4.254092   4.927962
    29  H    2.130928   3.832296   6.117465   4.549998   5.412485
                   11         12         13         14         15
    11  H    0.000000
    12  C    2.133678   0.000000
    13  C    2.873119   1.462241   0.000000
    14  C    4.422003   4.299668   5.747073   0.000000
    15  H    5.063481   4.701514   6.140653   1.089007   0.000000
    16  H    4.559606   4.910883   6.353935   1.084724   1.770564
    17  H    5.042151   4.769484   6.150555   1.087865   1.765580
    18  C    3.033203   4.363395   5.139041   4.524662   5.558862
    19  H    4.025092   5.433431   6.221214   5.029539   6.089989
    20  H    2.453955   4.193222   4.849867   4.950589   5.901036
    21  H    3.325994   4.300497   4.853945   5.055716   6.084849
    22  C    4.335038   2.610058   1.509540   6.674419   6.896641
    23  H    4.672103   3.093515   2.148647   7.066221   7.167111
    24  H    4.832053   2.822887   2.179637   6.403190   6.546898
    25  H    4.944645   3.442737   2.110841   7.572117   7.868209
    26  C    4.406480   2.576051   3.165066   4.725185   4.534603
    27  H    5.116522   3.092105   3.511034   5.077432   4.888296
    28  H    4.571238   2.828468   2.973692   5.654006   5.492770
    29  H    4.952059   3.395745   4.160361   4.584617   4.157122
                   16         17         18         19         20
    16  H    0.000000
    17  H    1.738376   0.000000
    18  C    4.325670   4.651871   0.000000
    19  H    4.648877   5.070582   1.084906   0.000000
    20  H    4.718380   5.282765   1.087824   1.773789   0.000000
    21  H    5.046482   5.041119   1.089847   1.764061   1.748979
    22  C    7.417626   7.025259   6.581568   7.662704   6.349402
    23  H    7.780654   7.542012   7.237143   8.320677   6.893874
    24  H    7.258492   6.649251   6.850617   7.918399   6.774259
    25  H    8.294947   7.854393   6.988388   8.048537   6.745853
    26  C    5.583327   5.233388   6.651953   7.662145   6.572448
    27  H    6.043051   5.380314   7.071971   8.075944   7.120271
    28  H    6.435947   6.223138   7.121945   8.166622   6.900320
    29  H    5.415641   5.182136   7.159742   8.113635   7.086923
                   21         22         23         24         25
    21  H    0.000000
    22  C    6.226384   0.000000
    23  H    6.999015   1.091467   0.000000
    24  H    6.478847   1.086881   1.765152   0.000000
    25  H    6.497955   1.087471   1.760221   1.775968   0.000000
    26  C    6.681317   3.034270   2.978480   2.629926   4.103114
    27  H    6.971959   3.088506   3.228551   2.326545   4.045782
    28  H    7.120166   2.570537   2.168541   2.418861   3.614477
    29  H    7.322177   4.084961   3.889249   3.684991   5.156674
                   26         27         28         29
    26  C    0.000000
    27  H    1.090213   0.000000
    28  H    1.082593   1.760416   0.000000
    29  H    1.089132   1.755728   1.749811   0.000000
 Stoichiometry    C11H15NO2
 Framework group  C1[X(C11H15NO2)]
 Deg. of freedom    81
 Full point group                 C1      NOp   1
 RotChk:  IX=0 Diff= 5.36D-16
 Largest Abelian subgroup         C1      NOp   1
 Largest concise Abelian subgroup C1      NOp   1
                         Standard orientation:                         
 ---------------------------------------------------------------------
 Center     Atomic      Atomic             Coordinates (Angstroms)
 Number     Number       Type             X           Y           Z
 ---------------------------------------------------------------------
      1          8           0        2.287942   -2.278326   -0.203039
      2          8           0       -3.597513   -0.247166    0.421471
      3          7           0        0.024430    1.801840   -0.224890
      4          1           0        0.052354    2.809161   -0.221485
      5          6           0       -1.290383   -0.141604   -0.081486
      6          6           0        1.230544    1.146024   -0.132764
      7          6           0       -1.207382    1.217612   -0.075044
      8          6           0       -2.561781   -0.830058    0.118955
      9          6           0       -0.057240   -0.949286   -0.371425
     10          1           0       -0.047287   -1.861058    0.224342
     11          1           0       -0.072041   -1.309836   -1.409839
     12          6           0        1.231225   -0.214021   -0.124045
     13          6           0        2.398528   -1.079522    0.038628
     14          6           0       -2.328227    2.189257    0.080156
     15          1           0       -2.000249    3.200780   -0.154768
     16          1           0       -3.165241    1.930354   -0.559376
     17          1           0       -2.708566    2.179596    1.099321
     18          6           0       -2.586214   -2.326139   -0.051021
     19          1           0       -3.614811   -2.670657   -0.068826
     20          1           0       -2.081828   -2.644381   -0.960790
     21          1           0       -2.074910   -2.811347    0.780188
     22          6           0        3.730330   -0.573454    0.537536
     23          1           0        4.320025   -0.176083   -0.290508
     24          1           0        3.637131    0.202889    1.292464
     25          1           0        4.270263   -1.421227    0.952681
     26          6           0        2.393676    2.083971   -0.060998
     27          1           0        2.669038    2.294150    0.972716
     28          1           0        3.266508    1.698289   -0.572290
     29          1           0        2.136712    3.033744   -0.528020
 ---------------------------------------------------------------------
 Rotational constants (GHZ):           1.0790756           0.4907163           0.3463919
 Leave Link  202 at Fri Jan 23 16:18:45 2026, MaxMem=  2147483648 cpu:               0.0 elap:               0.0
 (Enter /data/home/wyx/g16/l301.exe)
 Standard basis: TZVP (5D, 7F)
 Ernie: Thresh=  0.10000D-02 Tol=  0.10000D-05 Strict=F.
 There are   370 symmetry adapted cartesian basis functions of A   symmetry.
 There are   356 symmetry adapted basis functions of A   symmetry.
   356 basis functions,   610 primitive gaussians,   370 cartesian basis functions
    52 alpha electrons       52 beta electrons
       nuclear repulsion energy       900.8120873123 Hartrees.
 IExCor=20419 DFT=T Ex+Corr=CAM-B3LYP ExCW=0 ScaHFX=  1.000000
 ScaDFX=  1.000000  1.000000  1.000000  0.810000 ScalE2=  1.000000  1.000000
 IRadAn=      5 IRanWt=     -1 IRanGd=            0 ICorTp=0 IEmpDi=141
 HFx  wShort=  0.000000 wLong=  0.330000 cFull=  0.190000 cShort=  0.000000 cLong=  0.460000
 DFx  wShort=  0.000000 wLong=  0.330000 cFull=  0.190000 cShort=  0.000000 cLong=  0.460000
 NAtoms=   29 NActive=   29 NUniq=   29 SFac= 1.00D+00 NAtFMM=   60 NAOKFM=F Big=F
 Integral buffers will be    131072 words long.
 Raffenetti 1 integral format.
 Two-electron integral symmetry is turned on.
 R6Disp:  Grimme-D3(BJ) Dispersion energy=       -0.0262006212 Hartrees.
 Nuclear repulsion after empirical dispersion term =      900.7858866911 Hartrees.
 ------------------------------------------------------------------------------
 Polarizable Continuum Model (PCM)
 =================================
 Model                : PCM.
 Atomic radii         : UFF (Universal Force Field).
 Polarization charges : Total charges.
 Charge compensation  : None.
 Solution method      : On-the-fly selection.
 Cavity type          : Scaled VdW (van der Waals Surface) (Alpha=1.100).
 Cavity algorithm     : GePol (No added spheres)
                        Default sphere list used, NSphG=   29.
                        Lebedev-Laikov grids with approx.  5.0 points / Ang**2.
                        Smoothing algorithm: York/Karplus (Gamma=1.0000).
                        Polarization charges: spherical gaussians, with
                                              point-specific exponents (IZeta= 3).
                        Self-potential: point-specific (ISelfS= 7).
                        Self-field    : sphere-specific E.n sum rule (ISelfD= 2).
 Solvent              : TetraHydroFuran, Eps=   7.425700 Eps(inf)=   1.974025
 ------------------------------------------------------------------------------
 GePol: Number of generator spheres                  =      29
 GePol: Total number of spheres                      =      29
 GePol: Number of exposed spheres                    =      29 (100.00%)
 GePol: Number of points                             =    2097
 GePol: Average weight of points                     =       0.13
 GePol: Minimum weight of points                     =   0.39D-10
 GePol: Maximum weight of points                     =    0.20577
 GePol: Number of points with low weight             =     145
 GePol: Fraction of low-weight points (<1% of avg)   =       6.91%
 GePol: Cavity surface area                          =    268.555 Ang**2
 GePol: Cavity volume                                =    286.583 Ang**3
 Leave Link  301 at Fri Jan 23 16:18:45 2026, MaxMem=  2147483648 cpu:               0.6 elap:               0.0
 (Enter /data/home/wyx/g16/l302.exe)
 NPDir=0 NMtPBC=     1 NCelOv=     1 NCel=       1 NClECP=     1 NCelD=      1
         NCelK=      1 NCelE2=     1 NClLst=     1 CellRange=     0.0.
 One-electron integrals computed using PRISM.
 One-electron integral symmetry used in STVInt
 NBasis=   356 RedAO= T EigKep=  4.71D-05  NBF=   356
 NBsUse=   356 1.00D-06 EigRej= -1.00D+00 NBFU=   356
 Precomputing XC quadrature grid using
 IXCGrd= 4 IRadAn=           5 IRanWt=          -1 IRanGd=           0 AccXCQ= 0.00D+00.
 Generated NRdTot=       0 NPtTot=           0 NUsed=           0 NTot=          32
 NSgBfM=   366   366   366   366   366 MxSgAt=    29 MxSgA2=    29.
 Leave Link  302 at Fri Jan 23 16:18:46 2026, MaxMem=  2147483648 cpu:               3.1 elap:               0.2
 (Enter /data/home/wyx/g16/l303.exe)
 DipDrv:  MaxL=1.
 Leave Link  303 at Fri Jan 23 16:18:46 2026, MaxMem=  2147483648 cpu:               0.6 elap:               0.0
 (Enter /data/home/wyx/g16/l308.exe)
 Leave Link  308 at Fri Jan 23 16:18:46 2026, MaxMem=  2147483648 cpu:               0.7 elap:               0.1
 (Enter /data/home/wyx/g16/l401.exe)
 Initial guess from the checkpoint file:  "DDL-LR-Eq-13.chk"
 B after Tr=     0.000000    0.000000    0.000000
         Rot=    1.000000    0.000000   -0.000000   -0.000000 Ang=   0.00 deg.
 Guess basis will be translated and rotated to current coordinates.
 JPrj=2 DoOrth=T DoCkMO=T.
 Leave Link  401 at Fri Jan 23 16:18:46 2026, MaxMem=  2147483648 cpu:               2.2 elap:               0.2
 (Enter /data/home/wyx/g16/l502.exe)
 Integral symmetry usage will be decided dynamically.
 Closed shell SCF:
 Using DIIS extrapolation, IDIIS=  1040.
 NGot=  2147483648 LenX=  2147200095 LenY=  2147062754
 Requested convergence on RMS density matrix=1.00D-08 within 128 cycles.
 Requested convergence on MAX density matrix=1.00D-06.
 Requested convergence on             energy=1.00D-06.
 No special actions if energy rises.
 Fock matrices will be formed incrementally for  20 cycles.

 Cycle   1  Pass 1  IDiag  1:
 FoFJK:  IHMeth= 1 ICntrl=       0 DoSepK=T KAlg= 0 I1Cent=           0 FoldK=F
 IRaf=         1 NMat=       1 IRICut=       1 DoRegI=T DoRafI=F ISym2E= 0 IDoP0=0 IntGTp=1.
 FoFCou: FMM=F IPFlag=           0 FMFlag=      100000 FMFlg1=           0
         NFxFlg=           0 DoJE=T BraDBF=F KetDBF=F FulRan=T
         wScrn=  0.000000 ICntrl=       500 IOpCl=  0 I1Cent=           0 NGrid=           0
         NMat0=    1 NMatS0=      1 NMatT0=    0 NMatD0=    1 NMtDS0=    0 NMtDT0=    0
 Symmetry not used in FoFCou.
 Inv3:  Mode=1 IEnd=    13192227.
 Iteration    1 A*A^-1 deviation from unit magnitude is 2.78D-15 for     75.
 Iteration    1 A*A^-1 deviation from orthogonality  is 2.29D-15 for   2023   1555.
 Iteration    1 A^-1*A deviation from unit magnitude is 3.11D-15 for    190.
 Iteration    1 A^-1*A deviation from orthogonality  is 1.81D-15 for   1735   1505.
 E= -633.328427097788    
 DIIS: error= 1.57D-08 at cycle   1 NSaved=   1.
 NSaved= 1 IEnMin= 1 EnMin= -633.328427097788     IErMin= 1 ErrMin= 1.57D-08
 ErrMax= 1.57D-08  0.00D+00 EMaxC= 1.00D-01 BMatC= 6.52D-14 BMatP= 6.52D-14
 IDIUse=1 WtCom= 1.00D+00 WtEn= 0.00D+00
 Coeff-Com:  0.100D+01
 Coeff:      0.100D+01
 Gap=     0.236 Goal=   None    Shift=    0.000
 RMSDP=2.85D-09 MaxDP=8.73D-08              OVMax= 3.46D-07

 Error on total polarization charges =  0.01422
 SCF Done:  E(RCAM-B3LYP) =  -633.328427098     A.U. after    1 cycles
            NFock=  1  Conv=0.29D-08     -V/T= 2.0041
 KE= 6.307330084341D+02 PE=-3.277661676823D+03 EE= 1.112814354600D+03
 Leave Link  502 at Fri Jan 23 16:18:52 2026, MaxMem=  2147483648 cpu:              86.0 elap:               5.7
 (Enter /data/home/wyx/g16/l801.exe)
 DoSCS=F DFT=T ScalE2(SS,OS)=  1.000000  1.000000
 ExpMin= 9.52D-02 ExpMax= 2.70D+04 ExpMxC= 9.22D+02 IAcc=3 IRadAn=         5 AccDes= 0.00D+00
 HarFok:  IExCor=  205 AccDes= 0.00D+00 IRadAn=         5 IDoV=-2 UseB2=F ITyADJ=14
 ICtDFT= 12500011 ScaDFX=  1.000000  1.000000  1.000000  1.000000
 Largest valence mixing into a core orbital is  5.63D-05
 Largest core mixing into a valence orbital is  1.20D-05
 Range of M.O.s used for correlation:    15   356
 NBasis=   356 NAE=    52 NBE=    52 NFC=    14 NFV=     0
 NROrb=    342 NOA=    38 NOB=    38 NVA=   304 NVB=   304

 **** Warning!!: The largest alpha MO coefficient is  0.54850264D+02

 Leave Link  801 at Fri Jan 23 16:18:53 2026, MaxMem=  2147483648 cpu:               1.0 elap:               0.1
 (Enter /data/home/wyx/g16/l914.exe)
 RHF ground state
 Two-electron integrals replicated using symmetry.
 MDV=  2147483648 DFT=T DoStab=F Mixed=T DoRPA=T DoScal=F NonHer=T
 NEqPCM:  Using equilibrium solvation (IEInf=0, Eps=   7.4257, EpsInf=   1.9740)
 Making orbital integer symmetry assigments:
 Orbital symmetries:
       Occupied  (A) (A) (A) (A) (A) (A) (A) (A) (A) (A) (A) (A)
                 (A) (A) (A) (A) (A) (A) (A) (A) (A) (A) (A) (A)
                 (A) (A) (A) (A) (A) (A) (A) (A) (A) (A) (A) (A)
                 (A) (A) (A) (A) (A) (A) (A) (A) (A) (A) (A) (A)
                 (A) (A) (A) (A)
       Virtual   (A) (A) (A) (A) (A) (A) (A) (A) (A) (A) (A) (A)
                 (A) (A) (A) (A) (A) (A) (A) (A) (A) (A) (A) (A)
                 (A) (A) (A) (A) (A) (A) (A) (A) (A) (A) (A) (A)
                 (A) (A) (A) (A) (A) (A) (A) (A) (A) (A) (A) (A)
                 (A) (A) (A) (A) (A) (A) (A) (A) (A) (A) (A) (A)
                 (A) (A) (A) (A) (A) (A) (A) (A) (A) (A) (A) (A)
                 (A) (A) (A) (A) (A) (A) (A) (A) (A) (A) (A) (A)
                 (A) (A) (A) (A) (A) (A) (A) (A) (A) (A) (A) (A)
                 (A) (A) (A) (A) (A) (A) (A) (A) (A) (A) (A) (A)
                 (A) (A) (A) (A) (A) (A) (A) (A) (A) (A) (A) (A)
                 (A) (A) (A) (A) (A) (A) (A) (A) (A) (A) (A) (A)
                 (A) (A) (A) (A) (A) (A) (A) (A) (A) (A) (A) (A)
                 (A) (A) (A) (A) (A) (A) (A) (A) (A) (A) (A) (A)
                 (A) (A) (A) (A) (A) (A) (A) (A) (A) (A) (A) (A)
                 (A) (A) (A) (A) (A) (A) (A) (A) (A) (A) (A) (A)
                 (A) (A) (A) (A) (A) (A) (A) (A) (A) (A) (A) (A)
                 (A) (A) (A) (A) (A) (A) (A) (A) (A) (A) (A) (A)
                 (A) (A) (A) (A) (A) (A) (A) (A) (A) (A) (A) (A)
                 (A) (A) (A) (A) (A) (A) (A) (A) (A) (A) (A) (A)
                 (A) (A) (A) (A) (A) (A) (A) (A) (A) (A) (A) (A)
                 (A) (A) (A) (A) (A) (A) (A) (A) (A) (A) (A) (A)
                 (A) (A) (A) (A) (A) (A) (A) (A) (A) (A) (A) (A)
                 (A) (A) (A) (A) (A) (A) (A) (A) (A) (A) (A) (A)
                 (A) (A) (A) (A) (A) (A) (A) (A) (A) (A) (A) (A)
                 (A) (A) (A) (A) (A) (A) (A) (A) (A) (A) (A) (A)
                 (A) (A) (A) (A)
    24 initial guesses have been made.
 Convergence on wavefunction:    0.001000000000000
 Davidson Disk Diagonalization:  ConvIn= 1.00D-03 SkipCon=T Conv= 1.00D-03.
 Max sub-space:  2000 roots to seek:    24 dimension of matrix:        23104
 Iteration     1 Dimension    24 NMult     0 NNew     24
 CISAX will form    24 AO SS matrices at one time.
 NMat=    24 NSing=    24 JSym2X= 0.
 FoFJK:  IHMeth= 1 ICntrl=       0 DoSepK=T KAlg= 0 I1Cent=           0 FoldK=F
 IRaf=         1 NMat=      48 IRICut=       1 DoRegI=T DoRafI=F ISym2E= 0 IDoP0=3 IntGTp=3.
 FoFCou: FMM=F IPFlag=           0 FMFlag=      100000 FMFlg1=           0
         NFxFlg=           0 DoJE=F BraDBF=F KetDBF=F FulRan=T
         wScrn=  0.000000 ICntrl=       500 IOpCl=  0 I1Cent=           0 NGrid=           0
         NMat0=   24 NMatS0=     24 NMatT0=    0 NMatD0=   24 NMtDS0=    0 NMtDT0=    0
 Symmetry not used in FoFCou.
 New state      2 was old state      3
 New state      3 was old state      4
 New state      4 was old state      2
 New state      5 was old state      6
 New state      6 was old state      5
 Excitation Energies [eV] at current iteration:
 Root      1 :     3.820394991632496
 Root      2 :     4.310619990856726
 Root      3 :     4.499510575390272
 Root      4 :     5.494336477938175
 Root      5 :     6.121918852289225
 Root      6 :     6.307395253244261
 Root      7 :     6.681886080647441
 Root      8 :     6.769800963906818
 Root      9 :     7.013185028281544
 Root     10 :     7.026569855749883
 Root     11 :     7.220672134083748
 Root     12 :     7.398892309634864
 Root     13 :     7.548338817806253
 Root     14 :     7.641482666772478
 Root     15 :     7.769823025019870
 Root     16 :     7.943774471391963
 Root     17 :     8.111308178853008
 Root     18 :     8.220152431397485
 Root     19 :     8.261554903717137
 Root     20 :     8.550592679402179
 Root     21 :     8.651636278513573
 Root     22 :     8.877847866832894
 Root     23 :     8.985049513717996
 Root     24 :     9.134661441965427
 Iteration     2 Dimension    36 NMult    24 NNew     12
 CISAX will form    12 AO SS matrices at one time.
 NMat=    12 NSing=    12 JSym2X= 0.
 Root      1 not converged, maximum delta is    0.047431481816848
 Root      2 not converged, maximum delta is    0.074107372047494
 Root      3 not converged, maximum delta is    0.092291090169910
 Root      4 not converged, maximum delta is    0.337231081350679
 New state      5 was old state      6
 Root      5 not converged, maximum delta is    0.359260386806433
 New state      6 was old state      5
 Root      6 not converged, maximum delta is    0.248831438610694
 Excitation Energies [eV] at current iteration:
 Root      1 :     3.393028626885007   Change is   -0.427366364747490
 Root      2 :     4.077333119939469   Change is   -0.233286870917257
 Root      3 :     4.226413627159163   Change is   -0.273096948231109
 Root      4 :     5.085414495961241   Change is   -0.408921981976934
 Root      5 :     5.557052134529656   Change is   -0.750343118714605
 Root      6 :     6.002764946729565   Change is   -0.119153905559660
 Iteration     3 Dimension    48 NMult    36 NNew     12
 CISAX will form    12 AO SS matrices at one time.
 NMat=    12 NSing=    12 JSym2X= 0.
 Root      1 not converged, maximum delta is    0.007428964595527
 Root      2 not converged, maximum delta is    0.014045387753444
 Root      3 not converged, maximum delta is    0.013531402002028
 Root      4 not converged, maximum delta is    0.013324376055579
 Root      5 not converged, maximum delta is    0.013574571681121
 Root      6 not converged, maximum delta is    0.019680014975661
 Excitation Energies [eV] at current iteration:
 Root      1 :     3.378131502725264   Change is   -0.014897124159743
 Root      2 :     4.064011468105432   Change is   -0.013321651834038
 Root      3 :     4.212394384242693   Change is   -0.014019242916470
 Root      4 :     5.064928430963707   Change is   -0.020486064997533
 Root      5 :     5.539252347693234   Change is   -0.017799786836421
 Root      6 :     5.992172498443030   Change is   -0.010592448286534
 Iteration     4 Dimension    60 NMult    48 NNew     12
 CISAX will form    12 AO SS matrices at one time.
 NMat=    12 NSing=    12 JSym2X= 0.
 Root      1 not converged, maximum delta is    0.002093855289634
 Root      2 not converged, maximum delta is    0.002052837308607
 Root      3 not converged, maximum delta is    0.002209742070885
 Root      4 not converged, maximum delta is    0.003124722725113
 Root      5 not converged, maximum delta is    0.002605426167710
 Root      6 not converged, maximum delta is    0.003907554732885
 Excitation Energies [eV] at current iteration:
 Root      1 :     3.376908713196926   Change is   -0.001222789528338
 Root      2 :     4.063210316054146   Change is   -0.000801152051285
 Root      3 :     4.211545166254049   Change is   -0.000849217988644
 Root      4 :     5.063280970803233   Change is   -0.001647460160474
 Root      5 :     5.537612961917035   Change is   -0.001639385776200
 Root      6 :     5.991442781625115   Change is   -0.000729716817915
 Iteration     5 Dimension    72 NMult    60 NNew     12
 CISAX will form    12 AO SS matrices at one time.
 NMat=    12 NSing=    12 JSym2X= 0.
 Root      1 has converged.
 Root      2 has converged.
 Root      3 has converged.
 Root      4 has converged.
 Root      5 has converged.
 Root      6 has converged.
 Excitation Energies [eV] at current iteration:
 Root      1 :     3.376850351093736   Change is   -0.000058362103189
 Root      2 :     4.063167200771650   Change is   -0.000043115282497
 Root      3 :     4.211500016001630   Change is   -0.000045150252418
 Root      4 :     5.063146063060728   Change is   -0.000134907742505
 Root      5 :     5.537458380196094   Change is   -0.000154581720941
 Root      6 :     5.991394491332737   Change is   -0.000048290292379
 Convergence achieved on expansion vectors.
 ***********************************************************************
 Excited states from <AA,BB:AA,BB> singles matrix:
 ***********************************************************************
 
 1PDM for each excited state written to RWF  633
 Ground to excited state transition densities written to RWF  633
 Ground to excited state transition electric dipole moments (Au):
       state          X           Y           Z        Dip. S.      Osc.
         1        -1.6129      0.1958      0.0500      2.6423      0.2186
         2        -0.1381     -0.0135      0.0443      0.0212      0.0021
         3        -0.0142      0.1445     -0.0352      0.0223      0.0023
         4        -0.1964     -1.7601      0.1251      3.1521      0.3910
         5        -0.0593     -1.4815      0.0234      2.1990      0.2983
         6         0.0289      0.2380      0.0674      0.0620      0.0091
 Ground to excited state transition velocity dipole moments (Au):
       state          X           Y           Z        Dip. S.      Osc.
         1         0.1920     -0.0196     -0.0070      0.0373      0.2004
         2         0.0198      0.0023     -0.0038      0.0004      0.0018
         3         0.0022     -0.0208      0.0020      0.0004      0.0019
         4         0.0390      0.3138     -0.0187      0.1004      0.3596
         5         0.0125      0.2960     -0.0057      0.0878      0.2877
         6        -0.0070     -0.0490     -0.0343      0.0036      0.0110
 Ground to excited state transition magnetic dipole moments (Au):
       state          X           Y           Z
         1        -0.0761      0.0180     -1.4430
         2         0.8064     -0.1356     -0.3260
         3         0.1669     -0.9984     -0.1894
         4         0.0621     -0.1050      0.0814
         5         0.1927     -0.1059      0.2876
         6        -0.0304     -0.0119      0.0163
 Ground to excited state transition velocity quadrupole moments (Au):
       state          XX          YY          ZZ          XY          XZ          YZ
         1        -0.1729      0.0999      0.0017     -0.5408      0.0579      0.0132
         2         0.0049     -0.0060      0.0003     -0.0540      0.0174      0.0855
         3         0.0072     -0.0078      0.0275     -0.0534      0.0656      0.0088
         4        -1.2890      0.3060     -0.0037      0.0853      0.0888     -0.0543
         5        -0.5143      0.2670      0.0504      0.2256      0.0694      0.0349
         6        -0.2308     -0.2077      0.1812      0.0154      0.0348      0.0461
 <0|del|b> * <b|rxdel|0> + <0|del|b> * <b|delr+rdel|0>
 Rotatory Strengths (R) in cgs (10**-40 erg-esu-cm/Gauss)
       state          XX          YY          ZZ    R(velocity)    E-M Angle
         1        41.5344    -16.5254    -53.0989     -9.3633       91.01
         2         2.5744     44.2649     33.1660     26.6684       18.99
         3        49.5793      0.2815     45.2164     31.6924       16.30
         4      -121.5146      0.7203     -1.0301    -40.6081      133.62
         5       -95.2593      4.3133    -15.3794    -35.4418      106.57
         6         1.9223     -0.2275     -0.9440      0.2503       83.90
 1/2[<0|r|b>*<b|rxdel|0> + (<0|rxdel|b>*<b|r|0>)*]
 Rotatory Strengths (R) in cgs (10**-40 erg-esu-cm/Gauss)
       state          XX          YY          ZZ     R(length)
         1       -86.7969     -2.4954     51.0658    -12.7422
         2        78.7592     -1.2934     10.2235     29.2298
         3         1.6725    102.0193     -4.7088     32.9944
         4         8.6290   -130.7096     -7.1974    -43.0926
         5         8.0834   -110.9727     -4.7664    -35.8852
         6         0.6222      1.9982     -0.7776      0.6143
  1/2[<0|del|b>*<b|r|0> + (<0|r|b>*<b|del|0>)*] (Au)
       state          X           Y           Z        Dip. S.   Osc.(frdel)
         1        -0.3097     -0.0038     -0.0003      0.3139      0.2093
         2        -0.0027     -0.0000     -0.0002      0.0029      0.0020
         3        -0.0000     -0.0030     -0.0001      0.0031      0.0021
         4        -0.0077     -0.5524     -0.0023      0.5624      0.3749
         5        -0.0007     -0.4386     -0.0001      0.4395      0.2930
         6        -0.0002     -0.0117     -0.0023      0.0142      0.0094

 Excitation energies and oscillator strengths:
 
 Excited State   1:      Singlet-A      3.3769 eV  367.16 nm  f=0.2186  <S**2>=0.000
      52 -> 53         0.69911
 This state for optimization and/or second-order correction.
 Total Energy, E(TD-HF/TD-DFT) =  -633.204330131    
 Copying the excited state density for this state as the 1-particle RhoCI density.
 
 Excited State   2:      Singlet-A      4.0632 eV  305.14 nm  f=0.0021  <S**2>=0.000
      50 -> 54         0.19067
      51 -> 53         0.56551
      51 -> 54         0.32911
 
 Excited State   3:      Singlet-A      4.2115 eV  294.39 nm  f=0.0023  <S**2>=0.000
      49 -> 53         0.20770
      49 -> 54        -0.14150
      50 -> 53         0.53816
      50 -> 54        -0.26167
      50 -> 58         0.11310
      51 -> 54         0.20851
 
 Excited State   4:      Singlet-A      5.0631 eV  244.88 nm  f=0.3910  <S**2>=0.000
      52 -> 54         0.69313
 
 Excited State   5:      Singlet-A      5.5375 eV  223.90 nm  f=0.2983  <S**2>=0.000
      49 -> 53         0.62850
      50 -> 53        -0.24370
      51 -> 53         0.13261
 
 Excited State   6:      Singlet-A      5.9914 eV  206.94 nm  f=0.0091  <S**2>=0.000
      52 -> 55         0.65850
      52 -> 56         0.14911
 SavETr:  write IOETrn=   770 NScale= 10 NData=  16 NLR=1 NState=    6 LETran=     118.
 Leave Link  914 at Fri Jan 23 16:20:44 2026, MaxMem=  2147483648 cpu:            1777.2 elap:             111.4
 (Enter /data/home/wyx/g16/l601.exe)
 Copying SCF densities to generalized density rwf, IOpCl= 0 IROHF=0.

 **********************************************************************

            Population analysis using the SCF density.

 **********************************************************************

 Orbital symmetries:
       Occupied  (A) (A) (A) (A) (A) (A) (A) (A) (A) (A) (A) (A)
                 (A) (A) (A) (A) (A) (A) (A) (A) (A) (A) (A) (A)
                 (A) (A) (A) (A) (A) (A) (A) (A) (A) (A) (A) (A)
                 (A) (A) (A) (A) (A) (A) (A) (A) (A) (A) (A) (A)
                 (A) (A) (A) (A)
       Virtual   (A) (A) (A) (A) (A) (A) (A) (A) (A) (A) (A) (A)
                 (A) (A) (A) (A) (A) (A) (A) (A) (A) (A) (A) (A)
                 (A) (A) (A) (A) (A) (A) (A) (A) (A) (A) (A) (A)
                 (A) (A) (A) (A) (A) (A) (A) (A) (A) (A) (A) (A)
                 (A) (A) (A) (A) (A) (A) (A) (A) (A) (A) (A) (A)
                 (A) (A) (A) (A) (A) (A) (A) (A) (A) (A) (A) (A)
                 (A) (A) (A) (A) (A) (A) (A) (A) (A) (A) (A) (A)
                 (A) (A) (A) (A) (A) (A) (A) (A) (A) (A) (A) (A)
                 (A) (A) (A) (A) (A) (A) (A) (A) (A) (A) (A) (A)
                 (A) (A) (A) (A) (A) (A) (A) (A) (A) (A) (A) (A)
                 (A) (A) (A) (A) (A) (A) (A) (A) (A) (A) (A) (A)
                 (A) (A) (A) (A) (A) (A) (A) (A) (A) (A) (A) (A)
                 (A) (A) (A) (A) (A) (A) (A) (A) (A) (A) (A) (A)
                 (A) (A) (A) (A) (A) (A) (A) (A) (A) (A) (A) (A)
                 (A) (A) (A) (A) (A) (A) (A) (A) (A) (A) (A) (A)
                 (A) (A) (A) (A) (A) (A) (A) (A) (A) (A) (A) (A)
                 (A) (A) (A) (A) (A) (A) (A) (A) (A) (A) (A) (A)
                 (A) (A) (A) (A) (A) (A) (A) (A) (A) (A) (A) (A)
                 (A) (A) (A) (A) (A) (A) (A) (A) (A) (A) (A) (A)
                 (A) (A) (A) (A) (A) (A) (A) (A) (A) (A) (A) (A)
                 (A) (A) (A) (A) (A) (A) (A) (A) (A) (A) (A) (A)
                 (A) (A) (A) (A) (A) (A) (A) (A) (A) (A) (A) (A)
                 (A) (A) (A) (A) (A) (A) (A) (A) (A) (A) (A) (A)
                 (A) (A) (A) (A) (A) (A) (A) (A) (A) (A) (A) (A)
                 (A) (A) (A) (A) (A) (A) (A) (A) (A) (A) (A) (A)
                 (A) (A) (A) (A)
 The electronic state is 1-A.
 Alpha  occ. eigenvalues --  -19.17857 -19.17256 -14.44212 -10.33423 -10.32958
 Alpha  occ. eigenvalues --  -10.32141 -10.31553 -10.25968 -10.25113 -10.24823
 Alpha  occ. eigenvalues --  -10.24720 -10.24508 -10.24265 -10.23647  -1.11943
 Alpha  occ. eigenvalues --   -1.11466  -1.07679  -0.91292  -0.90300  -0.83865
 Alpha  occ. eigenvalues --   -0.82574  -0.81632  -0.78527  -0.73994  -0.71330
 Alpha  occ. eigenvalues --   -0.68600  -0.61585  -0.58239  -0.56823  -0.55183
 Alpha  occ. eigenvalues --   -0.54582  -0.53998  -0.52594  -0.51908  -0.50799
 Alpha  occ. eigenvalues --   -0.49951  -0.49526  -0.49171  -0.48630  -0.48138
 Alpha  occ. eigenvalues --   -0.46929  -0.45317  -0.45139  -0.43530  -0.43099
 Alpha  occ. eigenvalues --   -0.42359  -0.42113  -0.41929  -0.32781  -0.32206
 Alpha  occ. eigenvalues --   -0.31196  -0.25980
 Alpha virt. eigenvalues --   -0.02394   0.02533   0.06292   0.08075   0.08502
 Alpha virt. eigenvalues --    0.10010   0.10732   0.11902   0.12605   0.13516
 Alpha virt. eigenvalues --    0.14151   0.14865   0.15623   0.16136   0.16910
 Alpha virt. eigenvalues --    0.17525   0.17843   0.17949   0.18148   0.19192
 Alpha virt. eigenvalues --    0.19917   0.22087   0.22739   0.23425   0.23689
 Alpha virt. eigenvalues --    0.23930   0.24833   0.25587   0.26008   0.26471
 Alpha virt. eigenvalues --    0.26914   0.27427   0.28872   0.29021   0.30126
 Alpha virt. eigenvalues --    0.31657   0.31959   0.32640   0.33581   0.34353
 Alpha virt. eigenvalues --    0.35289   0.35942   0.36718   0.38092   0.38823
 Alpha virt. eigenvalues --    0.40024   0.40945   0.41655   0.42165   0.42667
 Alpha virt. eigenvalues --    0.43993   0.44334   0.45480   0.46056   0.46245
 Alpha virt. eigenvalues --    0.47258   0.47688   0.48060   0.48260   0.49031
 Alpha virt. eigenvalues --    0.49459   0.50441   0.50762   0.51367   0.51664
 Alpha virt. eigenvalues --    0.52828   0.53141   0.53393   0.54197   0.54319
 Alpha virt. eigenvalues --    0.54535   0.55872   0.56178   0.56588   0.58231
 Alpha virt. eigenvalues --    0.58733   0.59003   0.60738   0.61099   0.62597
 Alpha virt. eigenvalues --    0.63329   0.65711   0.66092   0.66444   0.67962
 Alpha virt. eigenvalues --    0.68619   0.70142   0.71158   0.72248   0.73019
 Alpha virt. eigenvalues --    0.73303   0.73849   0.74826   0.76028   0.77783
 Alpha virt. eigenvalues --    0.78260   0.79813   0.82157   0.84604   0.84928
 Alpha virt. eigenvalues --    0.89564   0.93454   0.99760   1.01105   1.24278
 Alpha virt. eigenvalues --    1.25582   1.27122   1.27689   1.29393   1.31500
 Alpha virt. eigenvalues --    1.32504   1.33054   1.34061   1.34966   1.35995
 Alpha virt. eigenvalues --    1.36504   1.37249   1.38227   1.39177   1.39903
 Alpha virt. eigenvalues --    1.40035   1.40270   1.41043   1.41557   1.41749
 Alpha virt. eigenvalues --    1.43298   1.44127   1.44539   1.45133   1.47055
 Alpha virt. eigenvalues --    1.48100   1.49115   1.49650   1.50435   1.51120
 Alpha virt. eigenvalues --    1.52102   1.52388   1.53662   1.54542   1.57754
 Alpha virt. eigenvalues --    1.58284   1.60582   1.60715   1.61335   1.62253
 Alpha virt. eigenvalues --    1.62671   1.63389   1.64173   1.65101   1.65665
 Alpha virt. eigenvalues --    1.66980   1.67348   1.67715   1.68236   1.68584
 Alpha virt. eigenvalues --    1.68737   1.69878   1.70466   1.71982   1.72289
 Alpha virt. eigenvalues --    1.73436   1.75186   1.76094   1.76660   1.78823
 Alpha virt. eigenvalues --    1.80128   1.83098   1.84308   1.86066   1.86540
 Alpha virt. eigenvalues --    1.86911   1.87434   1.88549   1.88984   1.90772
 Alpha virt. eigenvalues --    1.91317   1.94504   1.95175   1.98359   1.99699
 Alpha virt. eigenvalues --    2.00954   2.03815   2.04652   2.06483   2.09479
 Alpha virt. eigenvalues --    2.11201   2.12862   2.14568   2.16863   2.19511
 Alpha virt. eigenvalues --    2.20255   2.21300   2.21855   2.22764   2.26012
 Alpha virt. eigenvalues --    2.27043   2.27453   2.29090   2.30753   2.31588
 Alpha virt. eigenvalues --    2.33264   2.34583   2.36417   2.36982   2.38055
 Alpha virt. eigenvalues --    2.39485   2.40195   2.41611   2.43645   2.44829
 Alpha virt. eigenvalues --    2.45953   2.47788   2.50233   2.50515   2.51769
 Alpha virt. eigenvalues --    2.52574   2.53671   2.54953   2.56782   2.58616
 Alpha virt. eigenvalues --    2.58997   2.60160   2.61136   2.61954   2.62711
 Alpha virt. eigenvalues --    2.64466   2.65711   2.66941   2.67536   2.69035
 Alpha virt. eigenvalues --    2.71048   2.72036   2.72791   2.73684   2.75015
 Alpha virt. eigenvalues --    2.76099   2.76480   2.77404   2.78038   2.79471
 Alpha virt. eigenvalues --    2.80703   2.81538   2.83311   2.83496   2.84558
 Alpha virt. eigenvalues --    2.85573   2.86184   2.87895   2.90250   2.91788
 Alpha virt. eigenvalues --    2.97783   3.00067   3.00880   3.04184   3.10415
 Alpha virt. eigenvalues --    3.12280   3.15788   3.16745   3.17008   3.20492
 Alpha virt. eigenvalues --    3.21250   3.22325   3.24951   3.26421   3.27105
 Alpha virt. eigenvalues --    3.27658   3.29686   3.33416   3.34736   3.36642
 Alpha virt. eigenvalues --    3.37120   3.38772   3.39873   3.40305   3.41665
 Alpha virt. eigenvalues --    3.42568   3.44761   3.45511   3.46794   3.48011
 Alpha virt. eigenvalues --    3.48869   3.49464   3.55175   3.58326   3.59781
 Alpha virt. eigenvalues --    3.60499   3.90097   3.99657   4.34332   4.36367
 Alpha virt. eigenvalues --   21.64035  21.79621  22.08365  22.11006  22.11778
 Alpha virt. eigenvalues --   22.14710  22.15295  22.18402  22.20868  22.24805
 Alpha virt. eigenvalues --   22.30096  31.92893  43.63125  43.65649
          Condensed to atoms (all electrons):
               1          2          3          4          5          6
     1  O    7.934364   0.000000  -0.000231   0.000019   0.016659   0.016417
     2  O    0.000000   7.967980   0.000463   0.000033  -0.198433   0.000959
     3  N   -0.000231   0.000463   6.401544   0.374140  -0.115887   0.326608
     4  H    0.000019   0.000033   0.374140   0.411873   0.017030  -0.047595
     5  C    0.016659  -0.198433  -0.115887   0.017030   6.978367  -0.059191
     6  C    0.016417   0.000959   0.326608  -0.047595  -0.059191   5.632187
     7  C   -0.000443  -0.034953   0.377491  -0.040208   0.382863  -0.096612
     8  C   -0.000215   0.711475   0.004834  -0.000653  -0.236241   0.026312
     9  C   -0.024729   0.019116   0.014133  -0.000196  -0.500978  -0.119145
    10  H    0.015386  -0.000019  -0.001299   0.000020  -0.110523   0.025577
    11  H    0.003913   0.000099   0.003883   0.000012  -0.032358  -0.016239
    12  C   -0.218514  -0.002330  -0.091425   0.014705   0.144536  -0.171851
    13  C    0.710643  -0.000026   0.000546   0.000414   0.075818   0.177168
    14  C   -0.000006  -0.008809  -0.035526  -0.009058  -0.075026   0.009907
    15  H   -0.000000   0.004306   0.003174   0.001545   0.018776   0.006545
    16  H   -0.000000   0.001635   0.001256   0.000762  -0.009418  -0.000856
    17  H   -0.000000   0.001635  -0.002839   0.000913  -0.004823  -0.001932
    18  C   -0.000047  -0.105636  -0.000576   0.000020  -0.272690   0.000566
    19  H   -0.000003   0.009129   0.000002  -0.000001   0.024347   0.000029
    20  H    0.000086   0.003536   0.000120   0.000001   0.041339  -0.001098
    21  H    0.000016   0.001089   0.000012  -0.000000   0.004942   0.000244
    22  C   -0.106421   0.000000  -0.000066   0.000119   0.004237  -0.009107
    23  H    0.001203  -0.000000  -0.000032  -0.000016  -0.000078   0.011137
    24  H    0.004733  -0.000000  -0.000039  -0.000052  -0.000591  -0.033905
    25  H    0.007566   0.000000   0.000030  -0.000002  -0.000145  -0.001256
    26  C    0.000907   0.000004  -0.030208  -0.005678   0.000207   0.175174
    27  H   -0.000046  -0.000000  -0.002436   0.000431   0.000393  -0.035430
    28  H   -0.000249  -0.000000   0.002941   0.000871   0.000010  -0.044831
    29  H    0.000026  -0.000000   0.000379   0.001061  -0.000529  -0.050301
               7          8          9         10         11         12
     1  O   -0.000443  -0.000215  -0.024729   0.015386   0.003913  -0.218514
     2  O   -0.034953   0.711475   0.019116  -0.000019   0.000099  -0.002330
     3  N    0.377491   0.004834   0.014133  -0.001299   0.003883  -0.091425
     4  H   -0.040208  -0.000653  -0.000196   0.000020   0.000012   0.014705
     5  C    0.382863  -0.236241  -0.500978  -0.110523  -0.032358   0.144536
     6  C   -0.096612   0.026312  -0.119145   0.025577  -0.016239  -0.171851
     7  C    5.422855  -0.183147  -0.174144   0.018232  -0.004972   0.002805
     8  C   -0.183147   5.332030   0.095666  -0.009492  -0.003943  -0.032178
     9  C   -0.174144   0.095666   6.273345   0.530595   0.393441   0.012462
    10  H    0.018232  -0.009492   0.530595   0.505314  -0.035985  -0.106804
    11  H   -0.004972  -0.003943   0.393441  -0.035985   0.557558  -0.018912
    12  C    0.002805  -0.032178   0.012462  -0.106804  -0.018912   7.267885
    13  C    0.011499  -0.005741  -0.257945  -0.001534  -0.000187  -0.391039
    14  C    0.263152  -0.036871   0.010472   0.000531  -0.001301  -0.004208
    15  H   -0.076225   0.005566   0.000026  -0.000003   0.000066  -0.001274
    16  H   -0.028121  -0.007389  -0.000565  -0.000052   0.000190  -0.000041
    17  H   -0.023769  -0.002208   0.000687   0.000052  -0.000066   0.000860
    18  C    0.002315   0.314323   0.002421   0.008482  -0.009446  -0.004211
    19  H    0.000282  -0.052462  -0.000290   0.000549  -0.000038  -0.000190
    20  H    0.000995  -0.062563  -0.009503  -0.005263   0.002292   0.006879
    21  H    0.000889  -0.026255  -0.009509  -0.002263   0.000976  -0.003518
    22  C   -0.000059  -0.000049   0.003559   0.000975   0.001664  -0.256435
    23  H    0.000029   0.000003  -0.002070  -0.000116   0.000149  -0.011487
    24  H    0.000012  -0.000009   0.003416  -0.000060  -0.000130   0.066876
    25  H    0.000008   0.000003   0.000223  -0.000132  -0.000040   0.022291
    26  C    0.002269   0.000471   0.019865   0.000035  -0.000734  -0.076955
    27  H   -0.000771  -0.000009  -0.000166   0.000043  -0.000023  -0.019843
    28  H   -0.000781   0.000002  -0.000707   0.000004  -0.000104  -0.007944
    29  H    0.003682  -0.000006  -0.000563  -0.000011   0.000108   0.024045
              13         14         15         16         17         18
     1  O    0.710643  -0.000006  -0.000000  -0.000000  -0.000000  -0.000047
     2  O   -0.000026  -0.008809   0.004306   0.001635   0.001635  -0.105636
     3  N    0.000546  -0.035526   0.003174   0.001256  -0.002839  -0.000576
     4  H    0.000414  -0.009058   0.001545   0.000762   0.000913   0.000020
     5  C    0.075818  -0.075026   0.018776  -0.009418  -0.004823  -0.272690
     6  C    0.177168   0.009907   0.006545  -0.000856  -0.001932   0.000566
     7  C    0.011499   0.263152  -0.076225  -0.028121  -0.023769   0.002315
     8  C   -0.005741  -0.036871   0.005566  -0.007389  -0.002208   0.314323
     9  C   -0.257945   0.010472   0.000026  -0.000565   0.000687   0.002421
    10  H   -0.001534   0.000531  -0.000003  -0.000052   0.000052   0.008482
    11  H   -0.000187  -0.001301   0.000066   0.000190  -0.000066  -0.009446
    12  C   -0.391039  -0.004208  -0.001274  -0.000041   0.000860  -0.004211
    13  C    5.437829  -0.000034  -0.000021  -0.000001  -0.000018   0.000568
    14  C   -0.000034   5.057893   0.385468   0.424431   0.409549   0.001604
    15  H   -0.000021   0.385468   0.582527  -0.028025  -0.026485   0.000290
    16  H   -0.000001   0.424431  -0.028025   0.507021  -0.026091  -0.000237
    17  H   -0.000018   0.409549  -0.026485  -0.026091   0.509283  -0.000070
    18  C    0.000568   0.001604   0.000290  -0.000237  -0.000070   5.355008
    19  H   -0.000013   0.000061  -0.000005   0.000029  -0.000022   0.391780
    20  H    0.000507   0.000047  -0.000017  -0.000038   0.000005   0.380088
    21  H   -0.000065  -0.000273  -0.000006   0.000025  -0.000007   0.397258
    22  C    0.283328  -0.000023   0.000002  -0.000000   0.000000   0.000026
    23  H   -0.022075  -0.000001   0.000000  -0.000000   0.000000  -0.000002
    24  H   -0.092625  -0.000001   0.000000   0.000000   0.000000   0.000003
    25  H   -0.039899   0.000000   0.000000   0.000000  -0.000000  -0.000001
    26  C   -0.053047   0.001314   0.000089   0.000056  -0.000173   0.000025
    27  H    0.006330  -0.000109   0.000001   0.000004  -0.000011  -0.000001
    28  H   -0.004816   0.000092  -0.000012  -0.000001   0.000001  -0.000000
    29  H   -0.000693  -0.000263   0.000120  -0.000005   0.000003   0.000000
              19         20         21         22         23         24
     1  O   -0.000003   0.000086   0.000016  -0.106421   0.001203   0.004733
     2  O    0.009129   0.003536   0.001089   0.000000  -0.000000  -0.000000
     3  N    0.000002   0.000120   0.000012  -0.000066  -0.000032  -0.000039
     4  H   -0.000001   0.000001  -0.000000   0.000119  -0.000016  -0.000052
     5  C    0.024347   0.041339   0.004942   0.004237  -0.000078  -0.000591
     6  C    0.000029  -0.001098   0.000244  -0.009107   0.011137  -0.033905
     7  C    0.000282   0.000995   0.000889  -0.000059   0.000029   0.000012
     8  C   -0.052462  -0.062563  -0.026255  -0.000049   0.000003  -0.000009
     9  C   -0.000290  -0.009503  -0.009509   0.003559  -0.002070   0.003416
    10  H    0.000549  -0.005263  -0.002263   0.000975  -0.000116  -0.000060
    11  H   -0.000038   0.002292   0.000976   0.001664   0.000149  -0.000130
    12  C   -0.000190   0.006879  -0.003518  -0.256435  -0.011487   0.066876
    13  C   -0.000013   0.000507  -0.000065   0.283328  -0.022075  -0.092625
    14  C    0.000061   0.000047  -0.000273  -0.000023  -0.000001  -0.000001
    15  H   -0.000005  -0.000017  -0.000006   0.000002   0.000000   0.000000
    16  H    0.000029  -0.000038   0.000025  -0.000000  -0.000000   0.000000
    17  H   -0.000022   0.000005  -0.000007   0.000000   0.000000   0.000000
    18  C    0.391780   0.380088   0.397258   0.000026  -0.000002   0.000003
    19  H    0.504920  -0.021899  -0.009816  -0.000000   0.000000   0.000000
    20  H   -0.021899   0.538411  -0.026135   0.000017  -0.000000  -0.000000
    21  H   -0.009816  -0.026135   0.501148  -0.000013   0.000000  -0.000000
    22  C   -0.000000   0.000017  -0.000013   5.420716   0.400607   0.398574
    23  H    0.000000  -0.000000   0.000000   0.400607   0.494800  -0.027417
    24  H    0.000000  -0.000000  -0.000000   0.398574  -0.027417   0.541938
    25  H   -0.000000  -0.000000   0.000000   0.384984  -0.007678  -0.021923
    26  C    0.000000  -0.000015   0.000005  -0.027807  -0.014720   0.015939
    27  H    0.000000  -0.000000  -0.000000  -0.010788   0.001094  -0.001445
    28  H   -0.000000  -0.000000   0.000000   0.008073  -0.000426  -0.010064
    29  H    0.000000   0.000000  -0.000000   0.001982   0.000221   0.000720
              25         26         27         28         29
     1  O    0.007566   0.000907  -0.000046  -0.000249   0.000026
     2  O    0.000000   0.000004  -0.000000  -0.000000  -0.000000
     3  N    0.000030  -0.030208  -0.002436   0.002941   0.000379
     4  H   -0.000002  -0.005678   0.000431   0.000871   0.001061
     5  C   -0.000145   0.000207   0.000393   0.000010  -0.000529
     6  C   -0.001256   0.175174  -0.035430  -0.044831  -0.050301
     7  C    0.000008   0.002269  -0.000771  -0.000781   0.003682
     8  C    0.000003   0.000471  -0.000009   0.000002  -0.000006
     9  C    0.000223   0.019865  -0.000166  -0.000707  -0.000563
    10  H   -0.000132   0.000035   0.000043   0.000004  -0.000011
    11  H   -0.000040  -0.000734  -0.000023  -0.000104   0.000108
    12  C    0.022291  -0.076955  -0.019843  -0.007944   0.024045
    13  C   -0.039899  -0.053047   0.006330  -0.004816  -0.000693
    14  C    0.000000   0.001314  -0.000109   0.000092  -0.000263
    15  H    0.000000   0.000089   0.000001  -0.000012   0.000120
    16  H    0.000000   0.000056   0.000004  -0.000001  -0.000005
    17  H   -0.000000  -0.000173  -0.000011   0.000001   0.000003
    18  C   -0.000001   0.000025  -0.000001  -0.000000   0.000000
    19  H   -0.000000   0.000000   0.000000  -0.000000   0.000000
    20  H   -0.000000  -0.000015  -0.000000  -0.000000   0.000000
    21  H    0.000000   0.000005  -0.000000   0.000000  -0.000000
    22  C    0.384984  -0.027807  -0.010788   0.008073   0.001982
    23  H   -0.007678  -0.014720   0.001094  -0.000426   0.000221
    24  H   -0.021923   0.015939  -0.001445  -0.010064   0.000720
    25  H    0.492051   0.001818   0.000102   0.000842  -0.000042
    26  C    0.001818   5.256285   0.429735   0.427457   0.390033
    27  H    0.000102   0.429735   0.480579  -0.024929  -0.019232
    28  H    0.000842   0.427457  -0.024929   0.509011  -0.026644
    29  H   -0.000042   0.390033  -0.019232  -0.026644   0.522649
 Mulliken charges:
               1
     1  O   -0.361032
     2  O   -0.371254
     3  N   -0.230992
     4  H    0.279494
     5  C   -0.092616
     6  C    0.280519
     7  C    0.174824
     8  C    0.168745
     9  C   -0.278920
    10  H    0.167760
    11  H    0.160128
    12  C   -0.144184
    13  C    0.165131
    14  C   -0.393015
    15  H    0.123572
    16  H    0.165430
    17  H    0.165524
    18  C   -0.461858
    19  H    0.153612
    20  H    0.152209
    21  H    0.171257
    22  C   -0.498093
    23  H    0.176873
    24  H    0.156050
    25  H    0.161199
    26  C   -0.512350
    27  H    0.196527
    28  H    0.172202
    29  H    0.153257
 Sum of Mulliken charges =  -0.00000
 Mulliken charges with hydrogens summed into heavy atoms:
               1
     1  O   -0.361032
     2  O   -0.371254
     3  N    0.048501
     5  C   -0.092616
     6  C    0.280519
     7  C    0.174824
     8  C    0.168745
     9  C    0.048968
    12  C   -0.144184
    13  C    0.165131
    14  C    0.061512
    18  C    0.015220
    22  C   -0.003970
    26  C    0.009636
 Electronic spatial extent (au):  <R**2>=           3185.8030
 Charge=             -0.0000 electrons
 Dipole moment (field-independent basis, Debye):
    X=              3.8506    Y=              7.0422    Z=             -0.2231  Tot=              8.0293
 Quadrupole moment (field-independent basis, Debye-Ang):
   XX=            -97.2702   YY=            -78.7062   ZZ=            -84.9682
   XY=             12.2034   XZ=              5.2584   YZ=             -1.6169
 Traceless Quadrupole moment (field-independent basis, Debye-Ang):
   XX=            -10.2887   YY=              8.2753   ZZ=              2.0133
   XY=             12.2034   XZ=              5.2584   YZ=             -1.6169
 Octapole moment (field-independent basis, Debye-Ang**2):
  XXX=            105.1975  YYY=             61.2821  ZZZ=              1.9579  XYY=            -33.7671
  XXY=             29.2336  XXZ=             -9.2934  XZZ=              2.0029  YZZ=             -1.4945
  YYZ=              3.4999  XYZ=             -5.1523
 Hexadecapole moment (field-independent basis, Debye-Ang**3):
 XXXX=          -3018.4245 YYYY=          -1278.7009 ZZZZ=           -155.9305 XXXY=             34.1824
 XXXZ=             60.2786 YYYX=             85.0205 YYYZ=            -21.2286 ZZZX=             -2.8866
 ZZZY=              5.2853 XXYY=           -689.3745 XXZZ=           -484.7543 YYZZ=           -243.1838
 XXYZ=             -7.2755 YYXZ=              6.9653 ZZXY=             -1.4063
 N-N= 9.007858866911D+02 E-N=-3.277661675682D+03  KE= 6.307330084341D+02
 Leave Link  601 at Fri Jan 23 16:20:45 2026, MaxMem=  2147483648 cpu:               0.7 elap:               0.1
 (Enter /data/home/wyx/g16/l9999.exe)
 Electronic transition elements 
                 1             2             3             4             5 
      1  -0.633204D+03 -0.633179D+03 -0.633174D+03 -0.633142D+03 -0.633125D+03
      2  -0.158080D+01 -0.129857D+00 -0.573312D-01  0.387283D+00  0.434509D+00
      3  -0.358301D+00 -0.582535D-01  0.130429D+00 -0.171998D+01 -0.141390D+01
      4  -0.122290D+00  0.311129D-01 -0.449298D-01  0.209367D+00  0.105478D+00
      5   0.187076D+00  0.182072D-01  0.878602D-02 -0.657613D-01 -0.861361D-01
      6   0.461511D-01  0.875551D-02 -0.188256D-01  0.308106D+00  0.282700D+00
      7   0.133468D-01 -0.192887D-02  0.340664D-02 -0.333152D-01 -0.220344D-01
      8   0.867154D-01  0.837061D+00  0.509758D+00  0.838491D-01  0.182928D+00
      9  -0.413054D-01  0.136850D+00 -0.887716D+00 -0.760565D-01 -0.282482D-01
     10  -0.144195D+01 -0.235618D+00 -0.112127D+00  0.932469D-01  0.311076D+00
     11   0.184959D+00  0.400250D-01  0.257770D-01 -0.117215D+01 -0.573185D+00
     12  -0.272851D+00 -0.351140D-01 -0.385823D-01  0.177805D+00  0.323824D+00
     13   0.166084D-01 -0.564223D-02  0.397795D-01  0.766121D-02  0.525422D-01
     14  -0.504246D+00 -0.482025D-01 -0.385835D-01 -0.432263D+00 -0.776997D-01
     15   0.825554D-01 -0.653938D-02  0.596026D-01 -0.219176D-01 -0.158632D-01
     16  -0.192684D-01  0.821969D-01  0.276909D-01 -0.748857D-01  0.415199D-01
                 6 
      1  -0.633108D+03
      2  -0.597307D-01
      3   0.235244D+00
      4   0.557158D-01
      5   0.136540D-01
      6  -0.492164D-01
      7  -0.319007D-01
      8  -0.263919D-01
      9  -0.210653D-01
     10   0.138752D-01
     11  -0.236364D+00
     12  -0.197890D+00
     13   0.177022D+00
     14  -0.233046D-02
     15  -0.303543D-01
     16   0.638135D-01
 1\1\GINC-CN012\SP\RCAM-B3LYP TD-FC\TZVP\C11H15N1O2\WYX\23-Jan-2026\0\\
 #p CAM-B3LYP TZVP em=gd3bj td(Eqsolv,nstates=6,root=1) scrf=(Solvent=T
 etraHydroFuran) Geom=Check Guess=Read\\Title Card Required\\0,1\O,0,2.
 835855,-1.565559,0.140749\O,0,-3.420622,-1.623623,0.055146\N,0,-0.6377
 26,1.511206,-0.348608\H,0,-0.946975,2.468788,-0.402347\C,0,-1.238627,-
 0.757933,-0.221327\C,0,0.699087,1.302599,-0.098194\C,0,-1.613688,0.549
 488,-0.287498\C,0,-2.222736,-1.829948,-0.107701\C,0,0.217406,-1.109002
 ,-0.338689\H,0,0.462263,-1.950341,0.308273\H,0,0.44144,-1.476815,-1.35
 0144\C,0,1.151045,0.022948,-0.008595\C,0,2.513242,-0.394503,0.3205\C,0
 ,-3.003807,1.089688,-0.302554\H,0,-3.006462,2.146982,-0.563436\H,0,-3.
 628662,0.549404,-1.005601\H,0,-3.472467,0.975425,0.672511\C,0,-1.72874
 6,-3.250141,-0.190002\H,0,-2.575128,-3.921532,-0.289464\H,0,-1.047331,
 -3.400214,-1.024576\H,0,-1.183133,-3.515677,0.715296\C,0,3.535099,0.54
 2021,0.918365\H,0,4.049104,1.096088,0.130895\H,0,3.103883,1.258365,1.6
 12781\H,0,4.275366,-0.064516,1.434805\C,0,1.467934,2.579096,0.032955\H
 ,0,1.538383,2.893104,1.074588\H,0,2.471446,2.498754,-0.365185\H,0,0.96
 4558,3.375848,-0.512946\\Version=ES64L-G16RevA.03\State=1-A\HF=-633.32
 84271\RMSD=2.852e-09\PG=C01 [X(C11H15N1O2)]\\@


 The arm of the moral universe is long, but it bends toward justice.
 -- Martin Luther King, Jr.
 Job cpu time:       0 days  0 hours 31 minutes 14.5 seconds.
 Elapsed time:       0 days  0 hours  1 minutes 58.3 seconds.
 File lengths (MBytes):  RWF=    734 Int=      0 D2E=      0 Chk=     67 Scr=      1
 Normal termination of Gaussian 16 at Fri Jan 23 16:20:49 2026.
