 Entering Gaussian System, Link 0=g16
 Input=DDL-S2-cLR-gs-3.gjf
 Output=DDL-S2-cLR-gs-3.log
 Initial command:
 /data/home/wyx/g16/l1.exe "/scr/tmp/wyx/13106/Gau-1984676.inp" -scrdir="/scr/tmp/wyx/13106/"
 Entering Link 1 = /data/home/wyx/g16/l1.exe PID=   1984677.
  
 Copyright (c) 1988,1990,1992,1993,1995,1998,2003,2009,2016,
            Gaussian, Inc.  All Rights Reserved.
  
 This is part of the Gaussian(R) 16 program.  It is based on
 the Gaussian(R) 09 system (copyright 2009, Gaussian, Inc.),
 the Gaussian(R) 03 system (copyright 2003, Gaussian, Inc.),
 the Gaussian(R) 98 system (copyright 1998, Gaussian, Inc.),
 the Gaussian(R) 94 system (copyright 1995, Gaussian, Inc.),
 the Gaussian 92(TM) system (copyright 1992, Gaussian, Inc.),
 the Gaussian 90(TM) system (copyright 1990, Gaussian, Inc.),
 the Gaussian 88(TM) system (copyright 1988, Gaussian, Inc.),
 the Gaussian 86(TM) system (copyright 1986, Carnegie Mellon
 University), and the Gaussian 82(TM) system (copyright 1983,
 Carnegie Mellon University). Gaussian is a federally registered
 trademark of Gaussian, Inc.
  
 This software contains proprietary and confidential information,
 including trade secrets, belonging to Gaussian, Inc.
  
 This software is provided under written license and may be
 used, copied, transmitted, or stored only in accord with that
 written license.
  
 The following legend is applicable only to US Government
 contracts under FAR:
  
                    RESTRICTED RIGHTS LEGEND
  
 Use, reproduction and disclosure by the US Government is
 subject to restrictions as set forth in subparagraphs (a)
 and (c) of the Commercial Computer Software - Restricted
 Rights clause in FAR 52.227-19.
  
 Gaussian, Inc.
 340 Quinnipiac St., Bldg. 40, Wallingford CT 06492
  
  
 ---------------------------------------------------------------
 Warning -- This program may not be used in any manner that
 competes with the business of Gaussian, Inc. or will provide
 assistance to any competitor of Gaussian, Inc.  The licensee
 of this program is prohibited from giving any competitor of
 Gaussian, Inc. access to this program.  By using this program,
 the user acknowledges that Gaussian, Inc. is engaged in the
 business of creating and licensing software in the field of
 computational chemistry and represents and warrants to the
 licensee that it is not a competitor of Gaussian, Inc. and that
 it will not use this program in any manner prohibited above.
 ---------------------------------------------------------------
  

 Cite this work as:
 Gaussian 16, Revision A.03,
 M. J. Frisch, G. W. Trucks, H. B. Schlegel, G. E. Scuseria, 
 M. A. Robb, J. R. Cheeseman, G. Scalmani, V. Barone, 
 G. A. Petersson, H. Nakatsuji, X. Li, M. Caricato, A. V. Marenich, 
 J. Bloino, B. G. Janesko, R. Gomperts, B. Mennucci, H. P. Hratchian, 
 J. V. Ortiz, A. F. Izmaylov, J. L. Sonnenberg, D. Williams-Young, 
 F. Ding, F. Lipparini, F. Egidi, J. Goings, B. Peng, A. Petrone, 
 T. Henderson, D. Ranasinghe, V. G. Zakrzewski, J. Gao, N. Rega, 
 G. Zheng, W. Liang, M. Hada, M. Ehara, K. Toyota, R. Fukuda, 
 J. Hasegawa, M. Ishida, T. Nakajima, Y. Honda, O. Kitao, H. Nakai, 
 T. Vreven, K. Throssell, J. A. Montgomery, Jr., J. E. Peralta, 
 F. Ogliaro, M. J. Bearpark, J. J. Heyd, E. N. Brothers, K. N. Kudin, 
 V. N. Staroverov, T. A. Keith, R. Kobayashi, J. Normand, 
 K. Raghavachari, A. P. Rendell, J. C. Burant, S. S. Iyengar, 
 J. Tomasi, M. Cossi, J. M. Millam, M. Klene, C. Adamo, R. Cammi, 
 J. W. Ochterski, R. L. Martin, K. Morokuma, O. Farkas, 
 J. B. Foresman, and D. J. Fox, Gaussian, Inc., Wallingford CT, 2016.
 
 ******************************************
 Gaussian 16:  ES64L-G16RevA.03 25-Dec-2016
                23-Jan-2026 
 ******************************************
 %nprocshared=16
 Will use up to   16 processors via shared memory.
 %mem=16GB
 %oldchk=DDL-S2-cLR-3.chk
 %chk=DDL-S2-cLR-gs-3.chk
 Copying data from "DDL-S2-cLR-3.chk" to current chk file "DDL-S2-cLR-gs-3.chk"
 IOpt=  2 FromEx=T IUOpen= 4 IOptOp= 5 NList=   0 IFRang= 0 IUIn= 4 IUOut= 2.
 ----------------------------------------------------------------------
 #p CAM-B3LYP TZVP em=gd3bj scrf=(Solvent=TetraHydroFuran,NonEquilibriu
 m=Read) Geom=Check Guess=Read
 ----------------------------------------------------------------------
 1/29=2,38=1,172=1/1;
 2/12=2,40=1/2;
 3/5=19,7=101,11=2,14=-4,25=1,30=1,70=6002201,72=20,74=-40,116=-2,124=41/1,2,3;
 4/5=1/1;
 5/5=2,38=6,53=20/2;
 6/7=2,8=2,9=2,10=2,28=1/1;
 99/5=1,9=1/99;
 Leave Link    1 at Fri Jan 23 22:34:28 2026, MaxMem=  2147483648 cpu:               0.8 elap:               0.1
 (Enter /data/home/wyx/g16/l101.exe)
 -------------------
 Title Card Required
 -------------------
 Structure from the checkpoint file:  "DDL-S2-cLR-gs-3.chk"
 Charge =  0 Multiplicity = 1
 Z-Matrix found in chk file.
 O,0,2.839691,-1.573384,0.037849
 O,0,-3.429203,-1.648793,-0.14129
 N,0,-0.664952,1.517747,-0.185688
 H,0,-0.976814,2.478348,-0.235218
 C,0,-1.248428,-0.762655,-0.201081
 C,0,0.678995,1.334892,-0.023667
 C,0,-1.63861,0.578642,-0.238255
 C,0,-2.21189,-1.846455,-0.182765
 C,0,0.194308,-1.082668,-0.190208
 H,0,0.406434,-1.888397,0.521548
 H,0,0.474092,-1.562221,-1.146582
 C,0,1.147434,0.025849,0.041424
 C,0,2.517919,-0.401916,0.269951
 C,0,-3.027428,1.105125,-0.349093
 H,0,-3.024235,2.189528,-0.454009
 H,0,-3.543492,0.675929,-1.203654
 H,0,-3.619066,0.845626,0.525216
 C,0,-1.708565,-3.268057,-0.185138
 H,0,-2.516063,-3.926818,-0.488508
 H,0,-0.858139,-3.42479,-0.842902
 H,0,-1.398197,-3.560573,0.818638
 C,0,3.566365,0.527674,0.831886
 H,0,4.0722,1.06698,0.028207
 H,0,3.163894,1.257182,1.529871
 H,0,4.31009,-0.083283,1.33901
 C,0,1.469592,2.600083,0.025453
 H,0,1.716045,2.895922,1.046065
 H,0,2.400273,2.510419,-0.526187
 H,0,0.90775,3.420064,-0.420871
 Recover connectivity data from disk.
 ITRead=  0  0  0  0  0  0  0  0  0  0  0  0  0  0  0  0  0  0  0  0
 ITRead=  0  0  0  0  0  0  0  0  0
 MicOpt= -1 -1 -1 -1 -1 -1 -1 -1 -1 -1 -1 -1 -1 -1 -1 -1 -1 -1 -1 -1
 MicOpt= -1 -1 -1 -1 -1 -1 -1 -1 -1
 NAtoms=     29 NQM=       29 NQMF=       0 NMMI=      0 NMMIF=      0
                NMic=       0 NMicF=      0.
                    Isotopes and Nuclear Properties:
 (Nuclear quadrupole moments (NQMom) in fm**2, nuclear magnetic moments (NMagM)
  in nuclear magnetons)

  Atom         1           2           3           4           5           6           7           8           9          10
 IAtWgt=          16          16          14           1          12          12          12          12          12           1
 AtmWgt=  15.9949146  15.9949146  14.0030740   1.0078250  12.0000000  12.0000000  12.0000000  12.0000000  12.0000000   1.0078250
 NucSpn=           0           0           2           1           0           0           0           0           0           1
 AtZEff=   5.6000000   5.6000000   4.5500000   1.0000000   3.6000000   3.6000000   3.6000000   3.6000000   3.6000000   1.0000000
 NQMom=    0.0000000   0.0000000   2.0440000   0.0000000   0.0000000   0.0000000   0.0000000   0.0000000   0.0000000   0.0000000
 NMagM=    0.0000000   0.0000000   0.4037610   2.7928460   0.0000000   0.0000000   0.0000000   0.0000000   0.0000000   2.7928460
 AtZNuc=   8.0000000   8.0000000   7.0000000   1.0000000   6.0000000   6.0000000   6.0000000   6.0000000   6.0000000   1.0000000

  Atom        11          12          13          14          15          16          17          18          19          20
 IAtWgt=           1          12          12          12           1           1           1          12           1           1
 AtmWgt=   1.0078250  12.0000000  12.0000000  12.0000000   1.0078250   1.0078250   1.0078250  12.0000000   1.0078250   1.0078250
 NucSpn=           1           0           0           0           1           1           1           0           1           1
 AtZEff=   1.0000000   3.6000000   3.6000000   3.6000000   1.0000000   1.0000000   1.0000000   3.6000000   1.0000000   1.0000000
 NQMom=    0.0000000   0.0000000   0.0000000   0.0000000   0.0000000   0.0000000   0.0000000   0.0000000   0.0000000   0.0000000
 NMagM=    2.7928460   0.0000000   0.0000000   0.0000000   2.7928460   2.7928460   2.7928460   0.0000000   2.7928460   2.7928460
 AtZNuc=   1.0000000   6.0000000   6.0000000   6.0000000   1.0000000   1.0000000   1.0000000   6.0000000   1.0000000   1.0000000

  Atom        21          22          23          24          25          26          27          28          29
 IAtWgt=           1          12           1           1           1          12           1           1           1
 AtmWgt=   1.0078250  12.0000000   1.0078250   1.0078250   1.0078250  12.0000000   1.0078250   1.0078250   1.0078250
 NucSpn=           1           0           1           1           1           0           1           1           1
 AtZEff=   1.0000000   3.6000000   1.0000000   1.0000000   1.0000000   3.6000000   1.0000000   1.0000000   1.0000000
 NQMom=    0.0000000   0.0000000   0.0000000   0.0000000   0.0000000   0.0000000   0.0000000   0.0000000   0.0000000
 NMagM=    2.7928460   0.0000000   2.7928460   2.7928460   2.7928460   0.0000000   2.7928460   2.7928460   2.7928460
 AtZNuc=   1.0000000   6.0000000   1.0000000   1.0000000   1.0000000   6.0000000   1.0000000   1.0000000   1.0000000
 Leave Link  101 at Fri Jan 23 22:34:30 2026, MaxMem=  2147483648 cpu:               0.8 elap:               0.1
 (Enter /data/home/wyx/g16/l202.exe)
                          Input orientation:                          
 ---------------------------------------------------------------------
 Center     Atomic      Atomic             Coordinates (Angstroms)
 Number     Number       Type             X           Y           Z
 ---------------------------------------------------------------------
      1          8           0        2.839691   -1.573384    0.037849
      2          8           0       -3.429203   -1.648793   -0.141290
      3          7           0       -0.664952    1.517747   -0.185688
      4          1           0       -0.976814    2.478348   -0.235218
      5          6           0       -1.248428   -0.762655   -0.201081
      6          6           0        0.678995    1.334892   -0.023667
      7          6           0       -1.638610    0.578642   -0.238255
      8          6           0       -2.211890   -1.846455   -0.182765
      9          6           0        0.194308   -1.082668   -0.190208
     10          1           0        0.406434   -1.888397    0.521548
     11          1           0        0.474092   -1.562221   -1.146582
     12          6           0        1.147434    0.025849    0.041424
     13          6           0        2.517919   -0.401916    0.269951
     14          6           0       -3.027428    1.105125   -0.349093
     15          1           0       -3.024235    2.189528   -0.454009
     16          1           0       -3.543492    0.675929   -1.203654
     17          1           0       -3.619066    0.845626    0.525216
     18          6           0       -1.708565   -3.268057   -0.185138
     19          1           0       -2.516063   -3.926818   -0.488508
     20          1           0       -0.858139   -3.424790   -0.842902
     21          1           0       -1.398197   -3.560573    0.818638
     22          6           0        3.566365    0.527674    0.831886
     23          1           0        4.072200    1.066980    0.028207
     24          1           0        3.163894    1.257182    1.529871
     25          1           0        4.310090   -0.083283    1.339010
     26          6           0        1.469592    2.600083    0.025453
     27          1           0        1.716045    2.895922    1.046065
     28          1           0        2.400273    2.510419   -0.526187
     29          1           0        0.907750    3.420064   -0.420871
 ---------------------------------------------------------------------
                    Distance matrix (angstroms):
                    1          2          3          4          5
     1  O    0.000000
     2  O    6.271906   0.000000
     3  N    4.678417   4.203574   0.000000
     4  H    5.572864   4.801700   1.011170   0.000000
     5  C    4.174576   2.354696   2.353915   3.252544   0.000000
     6  C    3.623598   5.078730   1.365972   2.023351   2.854144
     7  C    4.976206   2.859562   1.353769   2.011682   1.397391
     8  C    5.063764   1.233954   3.702821   4.498009   1.450247
     9  C    2.700160   3.667795   2.738705   3.748918   1.477841
    10  H    2.500787   3.899856   3.640037   4.642686   2.127923
    11  H    2.645574   4.031602   3.421541   4.388839   2.121404
    12  C    2.328367   4.876824   2.358407   3.256334   2.533910
    13  C    1.236829   6.090327   3.744780   4.556783   3.812791
    14  C    6.461209   2.790819   2.403799   2.470572   2.583670
    15  H    6.984773   3.872273   2.467692   2.079235   3.454395
    16  H    6.880826   2.558517   3.167160   3.282441   2.888251
    17  H    6.914093   2.588900   3.111900   3.197739   2.955334
    18  C    4.858834   2.363162   4.898270   5.793025   2.547355
    19  H    5.873653   2.478666   5.758611   6.592389   3.420737
    20  H    4.228164   3.202623   4.989782   5.935520   2.766084
    21  H    4.745339   2.949805   5.228351   6.144652   2.981711
    22  C    2.360719   7.390673   4.463154   5.058094   5.090599
    23  H    2.913879   7.979674   4.763355   5.249180   5.631094
    24  H    3.216107   7.396377   4.203701   4.663931   5.152138
    25  H    2.464852   8.033602   5.444175   6.082064   5.807801
    26  C    4.392625   6.486828   2.402563   2.463264   4.329776
    27  H    4.717391   6.966909   3.014254   3.011236   4.871207
    28  H    4.145922   7.171470   3.239898   3.389750   4.912405
    29  H    5.373764   6.676873   2.479418   2.114918   4.710897
                    6          7          8          9         10
     6  C    0.000000
     7  C    2.447295   0.000000
     8  C    4.301569   2.492554   0.000000
     9  C    2.471286   2.474237   2.524523   0.000000
    10  H    3.280418   3.293294   2.711722   1.095807   0.000000
    11  H    3.113870   3.141952   2.867792   1.105849   1.701066
    12  C    1.391857   2.854092   3.852381   1.480173   2.108065
    13  C    2.546440   4.300756   4.966159   2.464617   2.594474
    14  C    3.727770   1.489391   3.066691   3.897597   4.637952
    15  H    3.824854   2.135758   4.125850   4.597377   5.417626
    16  H    4.433509   2.137764   3.029488   4.253338   5.015377
    17  H    4.360503   2.139246   3.119083   4.332663   4.866163
    18  C    5.187837   3.847702   1.508076   2.897736   2.622230
    19  H    6.173335   4.596925   2.124596   3.940087   3.703561
    20  H    5.068382   4.123372   2.181643   2.649375   2.412752
    21  H    5.384216   4.278776   2.145485   3.113496   2.478130
    22  C    3.117768   5.314091   6.328842   3.874099   3.989846
    23  H    3.404160   5.737842   6.929820   4.439227   4.734499
    24  H    2.931594   5.162435   6.439312   4.153554   4.302902
    25  H    4.129523   6.189745   6.925373   4.502992   4.377809
    26  C    1.492704   3.717080   5.776536   3.903270   4.639275
    27  H    2.157919   4.274690   6.279239   4.435452   4.987976
    28  H    2.144105   4.486340   6.353923   4.229591   4.941935
    29  H    2.134957   3.819814   6.125771   4.564734   5.414723
                   11         12         13         14         15
    11  H    0.000000
    12  C    2.094448   0.000000
    13  C    2.744103   1.453766   0.000000
    14  C    4.473406   4.329759   5.779728   0.000000
    15  H    5.176251   4.725440   6.160777   1.089471   0.000000
    16  H    4.599299   4.896694   6.330400   1.086649   1.767082
    17  H    5.034539   4.860618   6.267703   1.087102   1.766006
    18  C    2.932276   4.365533   5.126894   4.570668   5.620366
    19  H    3.868515   5.415313   6.192025   5.059781   6.137517
    20  H    2.310027   4.087941   4.666259   5.046761   6.030238
    21  H    3.370603   4.466175   5.061041   5.078063   6.109606
    22  C    4.224234   2.593817   1.509685   6.723561   6.917463
    23  H    4.608602   3.104575   2.152181   7.109749   7.200836
    24  H    4.727311   2.792448   2.181121   6.471947   6.564906
    25  H    4.804197   3.420239   2.110993   7.622413   7.884980
    26  C    4.437281   2.594363   3.189164   4.753775   4.537942
    27  H    5.121053   3.093532   3.481536   5.258703   5.021899
    28  H    4.547687   2.839873   3.021485   5.609470   5.434470
    29  H    5.053502   3.433928   4.204451   4.566149   4.120173
                   16         17         18         19         20
    16  H    0.000000
    17  H    1.738821   0.000000
    18  C    4.467590   4.590970   0.000000
    19  H    4.769940   5.002047   1.085381   0.000000
    20  H    4.914993   5.266015   1.086482   1.768146   0.000000
    21  H    5.161386   4.942969   1.090624   1.758519   1.752374
    22  C    7.396991   7.198997   6.577750   7.653879   6.164667
    23  H    7.724582   7.710486   7.228783   8.283129   6.726297
    24  H    7.266295   6.869298   6.867307   7.950448   6.612690
    25  H    8.289770   8.024752   6.977823   8.044187   6.529701
    26  C    5.508546   5.405768   6.676833   7.664857   6.517014
    27  H    6.136150   5.739199   7.158104   8.174071   7.081385
    28  H    6.257208   6.333200   7.098567   8.099988   6.778220
    29  H    5.287398   5.292908   7.185516   8.105785   7.081561
                   21         22         23         24         25
    21  H    0.000000
    22  C    6.431237   0.000000
    23  H    7.208625   1.092071   0.000000
    24  H    6.673027   1.086898   1.765274   0.000000
    25  H    6.704243   1.087920   1.760086   1.773990   0.000000
    26  C    6.841567   3.056415   3.020593   2.633878   4.122416
    27  H    7.171928   3.012998   3.151592   2.239599   3.961130
    28  H    7.286554   2.671219   2.277325   2.526083   3.722049
    29  H    7.455405   4.123537   3.968932   3.684242   5.191006
                   26         27         28         29
    26  C    0.000000
    27  H    1.090829   0.000000
    28  H    1.085594   1.757486   0.000000
    29  H    1.089606   1.754983   1.751048   0.000000
 Stoichiometry    C11H15NO2
 Framework group  C1[X(C11H15NO2)]
 Deg. of freedom    81
 Full point group                 C1      NOp   1
 RotChk:  IX=0 Diff= 1.17D-15
 Largest Abelian subgroup         C1      NOp   1
 Largest concise Abelian subgroup C1      NOp   1
                         Standard orientation:                         
 ---------------------------------------------------------------------
 Center     Atomic      Atomic             Coordinates (Angstroms)
 Number     Number       Type             X           Y           Z
 ---------------------------------------------------------------------
      1          8           0        2.283864   -2.285521   -0.272774
      2          8           0       -3.628794   -0.259588    0.249614
      3          7           0        0.018741    1.803487   -0.080893
      4          1           0        0.044530    2.814301   -0.088359
      5          6           0       -1.295506   -0.149085   -0.047289
      6          6           0        1.232151    1.176247   -0.071473
      7          6           0       -1.213821    1.245821   -0.030991
      8          6           0       -2.559858   -0.849562    0.070874
      9          6           0       -0.051265   -0.931727   -0.200093
     10          1           0       -0.050219   -1.792774    0.477690
     11          1           0       -0.048934   -1.434251   -1.185164
     12          6           0        1.237442   -0.215596   -0.068548
     13          6           0        2.400229   -1.085282    0.002238
     14          6           0       -2.348480    2.209377    0.017928
     15          1           0       -1.991833    3.234253   -0.078915
     16          1           0       -3.063812    2.014975   -0.776625
     17          1           0       -2.899599    2.123415    0.951025
     18          6           0       -2.566680   -2.356052    0.002052
     19          1           0       -3.575276   -2.693952   -0.213840
     20          1           0       -1.890891   -2.757926   -0.747782
     21          1           0       -2.271121   -2.779424    0.962709
     22          6           0        3.752032   -0.584057    0.450066
     23          1           0        4.324132   -0.209107   -0.401247
     24          1           0        3.692257    0.206202    1.193884
     25          1           0        4.295156   -1.429753    0.866462
     26          6           0        2.402572    2.102178   -0.101995
     27          1           0        2.837766    2.253473    0.886753
     28          1           0        3.186958    1.732026   -0.754866
     29          1           0        2.106233    3.081430   -0.476813
 ---------------------------------------------------------------------
 Rotational constants (GHZ):           1.0740376           0.4897956           0.3428618
 Leave Link  202 at Fri Jan 23 22:34:30 2026, MaxMem=  2147483648 cpu:               0.0 elap:               0.0
 (Enter /data/home/wyx/g16/l301.exe)
 Standard basis: TZVP (5D, 7F)
 Ernie: Thresh=  0.10000D-02 Tol=  0.10000D-05 Strict=F.
 There are   370 symmetry adapted cartesian basis functions of A   symmetry.
 There are   356 symmetry adapted basis functions of A   symmetry.
   356 basis functions,   610 primitive gaussians,   370 cartesian basis functions
    52 alpha electrons       52 beta electrons
       nuclear repulsion energy       899.1605564556 Hartrees.
 IExCor=20419 DFT=T Ex+Corr=CAM-B3LYP ExCW=0 ScaHFX=  1.000000
 ScaDFX=  1.000000  1.000000  1.000000  0.810000 ScalE2=  1.000000  1.000000
 IRadAn=      5 IRanWt=     -1 IRanGd=            0 ICorTp=0 IEmpDi=141
 HFx  wShort=  0.000000 wLong=  0.330000 cFull=  0.190000 cShort=  0.000000 cLong=  0.460000
 DFx  wShort=  0.000000 wLong=  0.330000 cFull=  0.190000 cShort=  0.000000 cLong=  0.460000
 NAtoms=   29 NActive=   29 NUniq=   29 SFac= 1.00D+00 NAtFMM=   60 NAOKFM=F Big=F
 Integral buffers will be    131072 words long.
 Raffenetti 2 integral format.
 Two-electron integral symmetry is turned on.
 R6Disp:  Grimme-D3(BJ) Dispersion energy=       -0.0261244882 Hartrees.
 Nuclear repulsion after empirical dispersion term =      899.1344319673 Hartrees.
 ------------------------------------------------------------------------------
 Polarizable Continuum Model (PCM)
 =================================
 Model                : PCM.
 Atomic radii         : UFF (Universal Force Field).
 Polarization charges : Total charges.
 Charge compensation  : None.
 Solution method      : On-the-fly selection.
 Cavity type          : Scaled VdW (van der Waals Surface) (Alpha=1.100).
 Cavity algorithm     : GePol (No added spheres)
                        Default sphere list used, NSphG=   29.
                        Lebedev-Laikov grids with approx.  5.0 points / Ang**2.
                        Smoothing algorithm: York/Karplus (Gamma=1.0000).
                        Polarization charges: spherical gaussians, with
                                              point-specific exponents (IZeta= 3).
                        Self-potential: point-specific (ISelfS= 7).
                        Self-field    : sphere-specific E.n sum rule (ISelfD= 2).
 Solvent              : TetraHydroFuran, Eps=   7.425700 Eps(inf)=   1.974025
 ------------------------------------------------------------------------------
 GePol: Number of generator spheres                  =      29
 GePol: Total number of spheres                      =      29
 GePol: Number of exposed spheres                    =      29 (100.00%)
 GePol: Number of points                             =    2094
 GePol: Average weight of points                     =       0.13
 GePol: Minimum weight of points                     =   0.10D-10
 GePol: Maximum weight of points                     =    0.20577
 GePol: Number of points with low weight             =     124
 GePol: Fraction of low-weight points (<1% of avg)   =       5.92%
 GePol: Cavity surface area                          =    269.241 Ang**2
 GePol: Cavity volume                                =    287.252 Ang**3
 Leave Link  301 at Fri Jan 23 22:34:30 2026, MaxMem=  2147483648 cpu:               0.6 elap:               0.0
 (Enter /data/home/wyx/g16/l302.exe)
 NPDir=0 NMtPBC=     1 NCelOv=     1 NCel=       1 NClECP=     1 NCelD=      1
         NCelK=      1 NCelE2=     1 NClLst=     1 CellRange=     0.0.
 One-electron integrals computed using PRISM.
 One-electron integral symmetry used in STVInt
 NBasis=   356 RedAO= T EigKep=  4.08D-05  NBF=   356
 NBsUse=   356 1.00D-06 EigRej= -1.00D+00 NBFU=   356
 Precomputing XC quadrature grid using
 IXCGrd= 4 IRadAn=           5 IRanWt=          -1 IRanGd=           0 AccXCQ= 0.00D+00.
 Generated NRdTot=       0 NPtTot=           0 NUsed=           0 NTot=          32
 NSgBfM=   366   366   366   366   366 MxSgAt=    29 MxSgA2=    29.
 Leave Link  302 at Fri Jan 23 22:34:31 2026, MaxMem=  2147483648 cpu:               3.1 elap:               0.2
 (Enter /data/home/wyx/g16/l303.exe)
 DipDrv:  MaxL=1.
 Leave Link  303 at Fri Jan 23 22:34:31 2026, MaxMem=  2147483648 cpu:               0.6 elap:               0.0
 (Enter /data/home/wyx/g16/l401.exe)
 Initial guess from the checkpoint file:  "DDL-S2-cLR-gs-3.chk"
 B after Tr=    -0.000000    0.000000    0.000000
         Rot=    1.000000    0.000000   -0.000000   -0.000000 Ang=   0.00 deg.
 Guess basis will be translated and rotated to current coordinates.
 JPrj=2 DoOrth=T DoCkMO=T.
 Leave Link  401 at Fri Jan 23 22:34:31 2026, MaxMem=  2147483648 cpu:               2.2 elap:               0.2
 (Enter /data/home/wyx/g16/l502.exe)
 Integral symmetry usage will be decided dynamically.
 Closed shell SCF:
 Using DIIS extrapolation, IDIIS=  1040.
 NGot=  2147483648 LenX=  2147200095 LenY=  2147062754
 Requested convergence on RMS density matrix=1.00D-08 within 128 cycles.
 Requested convergence on MAX density matrix=1.00D-06.
 Requested convergence on             energy=1.00D-06.
 No special actions if energy rises.
 Fock matrices will be formed incrementally for  20 cycles.

 Cycle   1  Pass 1  IDiag  1:
 FoFJK:  IHMeth= 1 ICntrl=       0 DoSepK=T KAlg= 0 I1Cent=           0 FoldK=F
 IRaf=         1 NMat=       1 IRICut=       1 DoRegI=T DoRafI=F ISym2E= 0 IDoP0=0 IntGTp=1.
 FoFCou: FMM=F IPFlag=           0 FMFlag=      100000 FMFlg1=           0
         NFxFlg=           0 DoJE=T BraDBF=F KetDBF=F FulRan=T
         wScrn=  0.000000 ICntrl=       500 IOpCl=  0 I1Cent=           0 NGrid=           0
         NMat0=    1 NMatS0=      1 NMatT0=    0 NMatD0=    1 NMtDS0=    0 NMtDT0=    0
 Symmetry not used in FoFCou.
 Inv3:  Mode=1 IEnd=    13154508.
 Iteration    1 A*A^-1 deviation from unit magnitude is 3.55D-15 for    368.
 Iteration    1 A*A^-1 deviation from orthogonality  is 1.97D-15 for   1306    430.
 Iteration    1 A^-1*A deviation from unit magnitude is 3.33D-15 for    368.
 Iteration    1 A^-1*A deviation from orthogonality  is 1.65D-15 for   1410    959.
 NEqPCM:  Using non-equilibrium solvation (IEInf=1, Eps=   7.4257, EpsInf=   1.9740)
 Inv3:  Mode=1 IEnd=    13154508.
 Iteration    1 A*A^-1 deviation from unit magnitude is 3.33D-15 for    474.
 Iteration    1 A*A^-1 deviation from orthogonality  is 1.55D-15 for   1947    368.
 Iteration    1 A^-1*A deviation from unit magnitude is 2.89D-15 for    474.
 Iteration    1 A^-1*A deviation from orthogonality  is 1.95D-15 for   1126    490.
 E= -633.319270748921    
 DIIS: error= 5.32D-04 at cycle   1 NSaved=   1.
 NSaved= 1 IEnMin= 1 EnMin= -633.319270748921     IErMin= 1 ErrMin= 5.32D-04
 ErrMax= 5.32D-04  0.00D+00 EMaxC= 1.00D-01 BMatC= 5.37D-05 BMatP= 5.37D-05
 IDIUse=3 WtCom= 9.95D-01 WtEn= 5.32D-03
 Coeff-Com:  0.100D+01
 Coeff-En:   0.100D+01
 Coeff:      0.100D+01
 Gap=     0.219 Goal=   None    Shift=    0.000
 RMSDP=3.28D-04 MaxDP=2.45D-02              OVMax= 9.10D-03

 Cycle   2  Pass 1  IDiag  1:
 RMSU=  3.24D-04    CP:  1.00D+00
 E= -633.319373362722     Delta-E=       -0.000102613800 Rises=F Damp=F
 DIIS: error= 3.43D-04 at cycle   2 NSaved=   2.
 NSaved= 2 IEnMin= 2 EnMin= -633.319373362722     IErMin= 2 ErrMin= 3.43D-04
 ErrMax= 3.43D-04  0.00D+00 EMaxC= 1.00D-01 BMatC= 5.38D-05 BMatP= 5.37D-05
 IDIUse=3 WtCom= 9.97D-01 WtEn= 3.43D-03
 Coeff-Com:  0.500D+00 0.500D+00
 Coeff-En:   0.000D+00 0.100D+01
 Coeff:      0.499D+00 0.501D+00
 Gap=     0.219 Goal=   None    Shift=    0.000
 RMSDP=9.12D-05 MaxDP=5.14D-03 DE=-1.03D-04 OVMax= 1.83D-03

 Cycle   3  Pass 1  IDiag  1:
 RMSU=  8.32D-05    CP:  1.00D+00  9.73D-01
 E= -633.319415846643     Delta-E=       -0.000042483921 Rises=F Damp=F
 DIIS: error= 1.40D-04 at cycle   3 NSaved=   3.
 NSaved= 3 IEnMin= 3 EnMin= -633.319415846643     IErMin= 3 ErrMin= 1.40D-04
 ErrMax= 1.40D-04  0.00D+00 EMaxC= 1.00D-01 BMatC= 6.52D-06 BMatP= 5.37D-05
 IDIUse=3 WtCom= 9.99D-01 WtEn= 1.40D-03
 Coeff-Com:  0.642D-01 0.233D+00 0.703D+00
 Coeff-En:   0.000D+00 0.000D+00 0.100D+01
 Coeff:      0.641D-01 0.233D+00 0.703D+00
 Gap=     0.219 Goal=   None    Shift=    0.000
 RMSDP=2.46D-05 MaxDP=1.26D-03 DE=-4.25D-05 OVMax= 1.38D-03

 Cycle   4  Pass 1  IDiag  1:
 RMSU=  1.76D-05    CP:  1.00D+00  9.93D-01  1.19D+00
 E= -633.319421942565     Delta-E=       -0.000006095922 Rises=F Damp=F
 DIIS: error= 7.23D-05 at cycle   4 NSaved=   4.
 NSaved= 4 IEnMin= 4 EnMin= -633.319421942565     IErMin= 4 ErrMin= 7.23D-05
 ErrMax= 7.23D-05  0.00D+00 EMaxC= 1.00D-01 BMatC= 6.17D-07 BMatP= 6.52D-06
 IDIUse=1 WtCom= 1.00D+00 WtEn= 0.00D+00
 Coeff-Com: -0.140D-01 0.132D-01 0.218D+00 0.783D+00
 Coeff:     -0.140D-01 0.132D-01 0.218D+00 0.783D+00
 Gap=     0.219 Goal=   None    Shift=    0.000
 RMSDP=1.71D-05 MaxDP=9.36D-04 DE=-6.10D-06 OVMax= 8.75D-04

 Cycle   5  Pass 1  IDiag  1:
 RMSU=  7.98D-06    CP:  1.00D+00  1.00D+00  1.35D+00  1.05D+00
 E= -633.319422914000     Delta-E=       -0.000000971434 Rises=F Damp=F
 DIIS: error= 2.55D-05 at cycle   5 NSaved=   5.
 NSaved= 5 IEnMin= 5 EnMin= -633.319422914000     IErMin= 5 ErrMin= 2.55D-05
 ErrMax= 2.55D-05  0.00D+00 EMaxC= 1.00D-01 BMatC= 1.80D-07 BMatP= 6.17D-07
 IDIUse=1 WtCom= 1.00D+00 WtEn= 0.00D+00
 Coeff-Com: -0.141D-01-0.365D-01-0.880D-02 0.365D+00 0.695D+00
 Coeff:     -0.141D-01-0.365D-01-0.880D-02 0.365D+00 0.695D+00
 Gap=     0.219 Goal=   None    Shift=    0.000
 RMSDP=6.94D-06 MaxDP=3.29D-04 DE=-9.71D-07 OVMax= 3.53D-04

 Cycle   6  Pass 1  IDiag  1:
 RMSU=  2.74D-06    CP:  1.00D+00  1.00D+00  1.42D+00  1.24D+00  1.06D+00
 E= -633.319423221239     Delta-E=       -0.000000307239 Rises=F Damp=F
 DIIS: error= 1.98D-05 at cycle   6 NSaved=   6.
 NSaved= 6 IEnMin= 6 EnMin= -633.319423221239     IErMin= 6 ErrMin= 1.98D-05
 ErrMax= 1.98D-05  0.00D+00 EMaxC= 1.00D-01 BMatC= 2.05D-08 BMatP= 1.80D-07
 IDIUse=1 WtCom= 1.00D+00 WtEn= 0.00D+00
 Coeff-Com: -0.482D-03-0.179D-01-0.286D-01-0.157D-02 0.173D+00 0.875D+00
 Coeff:     -0.482D-03-0.179D-01-0.286D-01-0.157D-02 0.173D+00 0.875D+00
 Gap=     0.219 Goal=   None    Shift=    0.000
 RMSDP=3.19D-06 MaxDP=1.37D-04 DE=-3.07D-07 OVMax= 2.87D-04

 Cycle   7  Pass 1  IDiag  1:
 RMSU=  1.23D-06    CP:  1.00D+00  9.99D-01  1.44D+00  1.32D+00  1.17D+00
                    CP:  1.31D+00
 E= -633.319423289811     Delta-E=       -0.000000068572 Rises=F Damp=F
 DIIS: error= 7.95D-06 at cycle   7 NSaved=   7.
 NSaved= 7 IEnMin= 7 EnMin= -633.319423289811     IErMin= 7 ErrMin= 7.95D-06
 ErrMax= 7.95D-06  0.00D+00 EMaxC= 1.00D-01 BMatC= 1.13D-08 BMatP= 2.05D-08
 IDIUse=1 WtCom= 1.00D+00 WtEn= 0.00D+00
 Coeff-Com:  0.293D-02-0.343D-02-0.870D-02-0.783D-01-0.114D+00 0.467D+00
 Coeff-Com:  0.735D+00
 Coeff:      0.293D-02-0.343D-02-0.870D-02-0.783D-01-0.114D+00 0.467D+00
 Coeff:      0.735D+00
 Gap=     0.219 Goal=   None    Shift=    0.000
 RMSDP=1.52D-06 MaxDP=5.64D-05 DE=-6.86D-08 OVMax= 1.52D-04

 Cycle   8  Pass 1  IDiag  1:
 RMSU=  4.79D-07    CP:  1.00D+00  9.97D-01  1.45D+00  1.36D+00  1.22D+00
                    CP:  1.57D+00  1.14D+00
 E= -633.319423312298     Delta-E=       -0.000000022486 Rises=F Damp=F
 DIIS: error= 2.62D-06 at cycle   8 NSaved=   8.
 NSaved= 8 IEnMin= 8 EnMin= -633.319423312298     IErMin= 8 ErrMin= 2.62D-06
 ErrMax= 2.62D-06  0.00D+00 EMaxC= 1.00D-01 BMatC= 1.09D-09 BMatP= 1.13D-08
 IDIUse=1 WtCom= 1.00D+00 WtEn= 0.00D+00
 Coeff-Com:  0.118D-02 0.833D-03 0.259D-02-0.251D-01-0.877D-01 0.214D-01
 Coeff-Com:  0.249D+00 0.838D+00
 Coeff:      0.118D-02 0.833D-03 0.259D-02-0.251D-01-0.877D-01 0.214D-01
 Coeff:      0.249D+00 0.838D+00
 Gap=     0.219 Goal=   None    Shift=    0.000
 RMSDP=5.93D-07 MaxDP=2.20D-05 DE=-2.25D-08 OVMax= 5.93D-05

 Cycle   9  Pass 1  IDiag  1:
 RMSU=  1.70D-07    CP:  1.00D+00  9.97D-01  1.45D+00  1.38D+00  1.22D+00
                    CP:  1.70D+00  1.33D+00  1.14D+00
 E= -633.319423315002     Delta-E=       -0.000000002704 Rises=F Damp=F
 DIIS: error= 8.54D-07 at cycle   9 NSaved=   9.
 NSaved= 9 IEnMin= 9 EnMin= -633.319423315002     IErMin= 9 ErrMin= 8.54D-07
 ErrMax= 8.54D-07  0.00D+00 EMaxC= 1.00D-01 BMatC= 1.44D-10 BMatP= 1.09D-09
 IDIUse=1 WtCom= 1.00D+00 WtEn= 0.00D+00
 Coeff-Com:  0.156D-04 0.702D-03 0.229D-02 0.432D-02-0.197D-01-0.604D-01
 Coeff-Com: -0.108D-02 0.342D+00 0.732D+00
 Coeff:      0.156D-04 0.702D-03 0.229D-02 0.432D-02-0.197D-01-0.604D-01
 Coeff:     -0.108D-02 0.342D+00 0.732D+00
 Gap=     0.219 Goal=   None    Shift=    0.000
 RMSDP=2.07D-07 MaxDP=1.19D-05 DE=-2.70D-09 OVMax= 1.72D-05

 Cycle  10  Pass 1  IDiag  1:
 RMSU=  7.85D-08    CP:  1.00D+00  9.97D-01  1.45D+00  1.38D+00  1.21D+00
                    CP:  1.73D+00  1.40D+00  1.25D+00  9.78D-01
 E= -633.319423315264     Delta-E=       -0.000000000263 Rises=F Damp=F
 DIIS: error= 2.66D-07 at cycle  10 NSaved=  10.
 NSaved=10 IEnMin=10 EnMin= -633.319423315264     IErMin=10 ErrMin= 2.66D-07
 ErrMax= 2.66D-07  0.00D+00 EMaxC= 1.00D-01 BMatC= 3.04D-11 BMatP= 1.44D-10
 IDIUse=1 WtCom= 1.00D+00 WtEn= 0.00D+00
 Coeff-Com: -0.108D-03 0.354D-03 0.312D-03 0.453D-02 0.175D-02-0.276D-01
 Coeff-Com: -0.268D-01 0.222D-01 0.312D+00 0.714D+00
 Coeff:     -0.108D-03 0.354D-03 0.312D-03 0.453D-02 0.175D-02-0.276D-01
 Coeff:     -0.268D-01 0.222D-01 0.312D+00 0.714D+00
 Gap=     0.219 Goal=   None    Shift=    0.000
 RMSDP=7.05D-08 MaxDP=4.42D-06 DE=-2.63D-10 OVMax= 4.75D-06

 Cycle  11  Pass 1  IDiag  1:
 RMSU=  2.25D-08    CP:  1.00D+00  9.97D-01  1.45D+00  1.38D+00  1.21D+00
                    CP:  1.74D+00  1.42D+00  1.28D+00  1.12D+00  1.10D+00
 E= -633.319423315299     Delta-E=       -0.000000000035 Rises=F Damp=F
 DIIS: error= 1.12D-07 at cycle  11 NSaved=  11.
 NSaved=11 IEnMin=11 EnMin= -633.319423315299     IErMin=11 ErrMin= 1.12D-07
 ErrMax= 1.12D-07  0.00D+00 EMaxC= 1.00D-01 BMatC= 5.40D-12 BMatP= 3.04D-11
 IDIUse=1 WtCom= 1.00D+00 WtEn= 0.00D+00
 Coeff-Com: -0.661D-04 0.109D-03-0.344D-03 0.169D-02 0.475D-02-0.223D-02
 Coeff-Com: -0.116D-01-0.588D-01 0.244D-01 0.326D+00 0.716D+00
 Coeff:     -0.661D-04 0.109D-03-0.344D-03 0.169D-02 0.475D-02-0.223D-02
 Coeff:     -0.116D-01-0.588D-01 0.244D-01 0.326D+00 0.716D+00
 Gap=     0.219 Goal=   None    Shift=    0.000
 RMSDP=3.75D-08 MaxDP=3.31D-06 DE=-3.48D-11 OVMax= 1.67D-06

 Cycle  12  Pass 1  IDiag  1:
 RMSU=  1.25D-08    CP:  1.00D+00  9.97D-01  1.45D+00  1.38D+00  1.21D+00
                    CP:  1.74D+00  1.43D+00  1.29D+00  1.15D+00  1.26D+00
                    CP:  9.91D-01
 E= -633.319423315303     Delta-E=       -0.000000000004 Rises=F Damp=F
 DIIS: error= 4.74D-08 at cycle  12 NSaved=  12.
 NSaved=12 IEnMin=12 EnMin= -633.319423315303     IErMin=12 ErrMin= 4.74D-08
 ErrMax= 4.74D-08  0.00D+00 EMaxC= 1.00D-01 BMatC= 7.73D-13 BMatP= 5.40D-12
 IDIUse=1 WtCom= 1.00D+00 WtEn= 0.00D+00
 Coeff-Com: -0.151D-04 0.258D-04-0.194D-03 0.143D-03 0.172D-02 0.257D-02
 Coeff-Com: -0.473D-03-0.275D-01-0.238D-01 0.390D-01 0.327D+00 0.682D+00
 Coeff:     -0.151D-04 0.258D-04-0.194D-03 0.143D-03 0.172D-02 0.257D-02
 Coeff:     -0.473D-03-0.275D-01-0.238D-01 0.390D-01 0.327D+00 0.682D+00
 Gap=     0.219 Goal=   None    Shift=    0.000
 RMSDP=8.07D-09 MaxDP=5.20D-07 DE=-3.64D-12 OVMax= 5.69D-07

 Error on total polarization charges =  0.00931
 SCF Done:  E(RCAM-B3LYP) =  -633.319423315     A.U. after   12 cycles
            NFock= 12  Conv=0.81D-08     -V/T= 2.0042
 KE= 6.306447013659D+02 PE=-3.274290300320D+03 EE= 1.111191743672D+03
 Leave Link  502 at Fri Jan 23 22:35:19 2026, MaxMem=  2147483648 cpu:             753.2 elap:              47.8
 (Enter /data/home/wyx/g16/l601.exe)
 Copying SCF densities to generalized density rwf, IOpCl= 0 IROHF=0.

 **********************************************************************

            Population analysis using the SCF density.

 **********************************************************************

 Orbital symmetries:
       Occupied  (A) (A) (A) (A) (A) (A) (A) (A) (A) (A) (A) (A)
                 (A) (A) (A) (A) (A) (A) (A) (A) (A) (A) (A) (A)
                 (A) (A) (A) (A) (A) (A) (A) (A) (A) (A) (A) (A)
                 (A) (A) (A) (A) (A) (A) (A) (A) (A) (A) (A) (A)
                 (A) (A) (A) (A)
       Virtual   (A) (A) (A) (A) (A) (A) (A) (A) (A) (A) (A) (A)
                 (A) (A) (A) (A) (A) (A) (A) (A) (A) (A) (A) (A)
                 (A) (A) (A) (A) (A) (A) (A) (A) (A) (A) (A) (A)
                 (A) (A) (A) (A) (A) (A) (A) (A) (A) (A) (A) (A)
                 (A) (A) (A) (A) (A) (A) (A) (A) (A) (A) (A) (A)
                 (A) (A) (A) (A) (A) (A) (A) (A) (A) (A) (A) (A)
                 (A) (A) (A) (A) (A) (A) (A) (A) (A) (A) (A) (A)
                 (A) (A) (A) (A) (A) (A) (A) (A) (A) (A) (A) (A)
                 (A) (A) (A) (A) (A) (A) (A) (A) (A) (A) (A) (A)
                 (A) (A) (A) (A) (A) (A) (A) (A) (A) (A) (A) (A)
                 (A) (A) (A) (A) (A) (A) (A) (A) (A) (A) (A) (A)
                 (A) (A) (A) (A) (A) (A) (A) (A) (A) (A) (A) (A)
                 (A) (A) (A) (A) (A) (A) (A) (A) (A) (A) (A) (A)
                 (A) (A) (A) (A) (A) (A) (A) (A) (A) (A) (A) (A)
                 (A) (A) (A) (A) (A) (A) (A) (A) (A) (A) (A) (A)
                 (A) (A) (A) (A) (A) (A) (A) (A) (A) (A) (A) (A)
                 (A) (A) (A) (A) (A) (A) (A) (A) (A) (A) (A) (A)
                 (A) (A) (A) (A) (A) (A) (A) (A) (A) (A) (A) (A)
                 (A) (A) (A) (A) (A) (A) (A) (A) (A) (A) (A) (A)
                 (A) (A) (A) (A) (A) (A) (A) (A) (A) (A) (A) (A)
                 (A) (A) (A) (A) (A) (A) (A) (A) (A) (A) (A) (A)
                 (A) (A) (A) (A) (A) (A) (A) (A) (A) (A) (A) (A)
                 (A) (A) (A) (A) (A) (A) (A) (A) (A) (A) (A) (A)
                 (A) (A) (A) (A) (A) (A) (A) (A) (A) (A) (A) (A)
                 (A) (A) (A) (A) (A) (A) (A) (A) (A) (A) (A) (A)
                 (A) (A) (A) (A)
 The electronic state is 1-A.
 Alpha  occ. eigenvalues --  -19.18071 -19.16602 -14.44989 -10.33628 -10.33137
 Alpha  occ. eigenvalues --  -10.32511 -10.32214 -10.26610 -10.25652 -10.25066
 Alpha  occ. eigenvalues --  -10.24762 -10.24602 -10.24541 -10.23246  -1.11673
 Alpha  occ. eigenvalues --   -1.10497  -1.08674  -0.91668  -0.90642  -0.84061
 Alpha  occ. eigenvalues --   -0.82804  -0.81791  -0.78541  -0.74047  -0.72309
 Alpha  occ. eigenvalues --   -0.68805  -0.61667  -0.58434  -0.57183  -0.55363
 Alpha  occ. eigenvalues --   -0.54841  -0.54008  -0.52552  -0.51884  -0.51053
 Alpha  occ. eigenvalues --   -0.49939  -0.49500  -0.49214  -0.48802  -0.48117
 Alpha  occ. eigenvalues --   -0.47314  -0.45461  -0.44808  -0.44175  -0.43478
 Alpha  occ. eigenvalues --   -0.42268  -0.42189  -0.41347  -0.32802  -0.32365
 Alpha  occ. eigenvalues --   -0.30793  -0.25278
 Alpha virt. eigenvalues --   -0.03395   0.02483   0.05945   0.07867   0.08255
 Alpha virt. eigenvalues --    0.09520   0.10773   0.11506   0.12356   0.13260
 Alpha virt. eigenvalues --    0.13717   0.14602   0.15442   0.16370   0.16957
 Alpha virt. eigenvalues --    0.17553   0.17794   0.17885   0.18460   0.19270
 Alpha virt. eigenvalues --    0.19697   0.21963   0.22541   0.23338   0.23595
 Alpha virt. eigenvalues --    0.23749   0.24729   0.25464   0.26296   0.26643
 Alpha virt. eigenvalues --    0.27199   0.27914   0.28249   0.29345   0.30178
 Alpha virt. eigenvalues --    0.31490   0.31723   0.32205   0.33237   0.34107
 Alpha virt. eigenvalues --    0.34557   0.35813   0.36716   0.37611   0.38412
 Alpha virt. eigenvalues --    0.39599   0.40789   0.41240   0.41616   0.42232
 Alpha virt. eigenvalues --    0.43863   0.44721   0.45458   0.46117   0.46474
 Alpha virt. eigenvalues --    0.47140   0.47597   0.47899   0.48352   0.48947
 Alpha virt. eigenvalues --    0.49390   0.50554   0.51283   0.51420   0.51592
 Alpha virt. eigenvalues --    0.52535   0.52726   0.53152   0.53769   0.54154
 Alpha virt. eigenvalues --    0.54249   0.55130   0.55748   0.56551   0.58038
 Alpha virt. eigenvalues --    0.58266   0.59787   0.60994   0.61594   0.63053
 Alpha virt. eigenvalues --    0.63897   0.65007   0.66335   0.66888   0.67490
 Alpha virt. eigenvalues --    0.68778   0.69340   0.70474   0.71012   0.71884
 Alpha virt. eigenvalues --    0.72924   0.74554   0.74952   0.75790   0.77473
 Alpha virt. eigenvalues --    0.78930   0.80325   0.83308   0.86385   0.87456
 Alpha virt. eigenvalues --    0.91257   0.95699   1.02153   1.04529   1.22011
 Alpha virt. eigenvalues --    1.24085   1.27028   1.28472   1.28950   1.30210
 Alpha virt. eigenvalues --    1.31801   1.32995   1.34392   1.35084   1.36090
 Alpha virt. eigenvalues --    1.36680   1.37967   1.38280   1.38560   1.39367
 Alpha virt. eigenvalues --    1.39818   1.40208   1.40620   1.41192   1.41939
 Alpha virt. eigenvalues --    1.43253   1.43274   1.44238   1.45408   1.47199
 Alpha virt. eigenvalues --    1.47943   1.49288   1.49779   1.50150   1.50343
 Alpha virt. eigenvalues --    1.51142   1.52040   1.52714   1.55436   1.58581
 Alpha virt. eigenvalues --    1.59452   1.59966   1.60888   1.61538   1.62277
 Alpha virt. eigenvalues --    1.62425   1.63027   1.63494   1.64332   1.65792
 Alpha virt. eigenvalues --    1.66268   1.66965   1.67387   1.67761   1.68518
 Alpha virt. eigenvalues --    1.68970   1.69650   1.70129   1.70804   1.72239
 Alpha virt. eigenvalues --    1.74073   1.74658   1.75552   1.76580   1.78460
 Alpha virt. eigenvalues --    1.81370   1.82615   1.83585   1.85420   1.86479
 Alpha virt. eigenvalues --    1.86615   1.88071   1.88566   1.89047   1.90084
 Alpha virt. eigenvalues --    1.91062   1.94246   1.94878   1.99025   1.99648
 Alpha virt. eigenvalues --    2.01411   2.03722   2.05479   2.06705   2.09328
 Alpha virt. eigenvalues --    2.10161   2.11523   2.15596   2.17428   2.19477
 Alpha virt. eigenvalues --    2.20361   2.20927   2.22015   2.22737   2.26530
 Alpha virt. eigenvalues --    2.27026   2.27207   2.29092   2.31121   2.32112
 Alpha virt. eigenvalues --    2.33665   2.34206   2.36658   2.37771   2.39209
 Alpha virt. eigenvalues --    2.39232   2.40271   2.41299   2.42621   2.44884
 Alpha virt. eigenvalues --    2.45737   2.47597   2.48825   2.49701   2.51120
 Alpha virt. eigenvalues --    2.52351   2.54108   2.54443   2.56384   2.57256
 Alpha virt. eigenvalues --    2.58483   2.61085   2.61727   2.62347   2.63268
 Alpha virt. eigenvalues --    2.64683   2.65407   2.66473   2.67295   2.68371
 Alpha virt. eigenvalues --    2.71492   2.71865   2.73861   2.74694   2.75404
 Alpha virt. eigenvalues --    2.76547   2.76855   2.77233   2.78096   2.78819
 Alpha virt. eigenvalues --    2.80908   2.81687   2.83092   2.83824   2.84927
 Alpha virt. eigenvalues --    2.85557   2.86205   2.88753   2.89086   2.92160
 Alpha virt. eigenvalues --    2.97143   2.98924   3.00809   3.06796   3.10570
 Alpha virt. eigenvalues --    3.11968   3.14572   3.17666   3.19083   3.21221
 Alpha virt. eigenvalues --    3.22290   3.23262   3.24998   3.25689   3.26912
 Alpha virt. eigenvalues --    3.28608   3.30424   3.32388   3.34753   3.36289
 Alpha virt. eigenvalues --    3.38043   3.38524   3.39519   3.39753   3.41657
 Alpha virt. eigenvalues --    3.41976   3.43797   3.44784   3.47798   3.48466
 Alpha virt. eigenvalues --    3.49543   3.49982   3.55707   3.58231   3.60045
 Alpha virt. eigenvalues --    3.61105   3.90875   4.00550   4.32975   4.36608
 Alpha virt. eigenvalues --   21.67704  21.80702  22.07901  22.10149  22.11758
 Alpha virt. eigenvalues --   22.14653  22.15147  22.17890  22.19128  22.24833
 Alpha virt. eigenvalues --   22.27480  31.91240  43.63850  43.67057
          Condensed to atoms (all electrons):
               1          2          3          4          5          6
     1  O    7.929582   0.000000  -0.000178   0.000019   0.019206   0.008969
     2  O    0.000000   7.958598   0.000498   0.000020  -0.187776   0.001295
     3  N   -0.000178   0.000498   6.378978   0.369613  -0.124259   0.328907
     4  H    0.000019   0.000020   0.369613   0.413624   0.015668  -0.046715
     5  C    0.019206  -0.187776  -0.124259   0.015668   7.160193  -0.084593
     6  C    0.008969   0.001295   0.328907  -0.046715  -0.084593   5.585902
     7  C   -0.000053  -0.049649   0.387870  -0.036808   0.466250  -0.128159
     8  C   -0.000742   0.694892   0.004485  -0.000835  -0.313260   0.032273
     9  C   -0.002695   0.027285   0.015564   0.000184  -0.745271  -0.039781
    10  H    0.008427  -0.000013  -0.001204   0.000024  -0.115683   0.029775
    11  H    0.007973   0.000113   0.003466   0.000036  -0.060176  -0.020256
    12  C   -0.232693  -0.003211  -0.091091   0.014472   0.207825  -0.088071
    13  C    0.716513  -0.000010   0.001822   0.000573   0.084145   0.124581
    14  C   -0.000008   0.001545  -0.033200  -0.010104  -0.088658   0.011844
    15  H   -0.000000   0.004159   0.004224   0.002171   0.022406   0.006514
    16  H    0.000000   0.001455  -0.000218   0.000811  -0.007207  -0.001312
    17  H   -0.000000   0.002736  -0.001915   0.000928  -0.010127  -0.001340
    18  C    0.000286  -0.099546  -0.000464   0.000022  -0.250896  -0.000164
    19  H   -0.000000   0.007147   0.000005  -0.000001   0.020864   0.000021
    20  H    0.000164   0.004210   0.000109   0.000001   0.045423  -0.001255
    21  H   -0.000006   0.000718   0.000011  -0.000001   0.002670   0.000203
    22  C   -0.105855   0.000000  -0.000280   0.000119   0.003929  -0.024949
    23  H    0.001423   0.000000   0.000019  -0.000011  -0.000013   0.008362
    24  H    0.005091  -0.000000   0.000193  -0.000057  -0.000731  -0.025694
    25  H    0.006582   0.000000   0.000022  -0.000003  -0.000136  -0.000764
    26  C    0.000768   0.000010  -0.025486  -0.006617   0.000424   0.192810
    27  H   -0.000053  -0.000000  -0.002546   0.000496   0.000394  -0.032469
    28  H   -0.000236  -0.000000   0.001110   0.000731   0.000062  -0.047697
    29  H    0.000023   0.000000   0.001779   0.002083  -0.000344  -0.049125
               7          8          9         10         11         12
     1  O   -0.000053  -0.000742  -0.002695   0.008427   0.007973  -0.232693
     2  O   -0.049649   0.694892   0.027285  -0.000013   0.000113  -0.003211
     3  N    0.387870   0.004485   0.015564  -0.001204   0.003466  -0.091091
     4  H   -0.036808  -0.000835   0.000184   0.000024   0.000036   0.014472
     5  C    0.466250  -0.313260  -0.745271  -0.115683  -0.060176   0.207825
     6  C   -0.128159   0.032273  -0.039781   0.029775  -0.020256  -0.088071
     7  C    5.434511  -0.229093  -0.227790   0.015640  -0.005837   0.029022
     8  C   -0.229093   5.369075   0.215420  -0.008365  -0.002115  -0.054247
     9  C   -0.227790   0.215420   6.479316   0.536213   0.425409  -0.172438
    10  H    0.015640  -0.008365   0.536213   0.535243  -0.049575  -0.108840
    11  H   -0.005837  -0.002115   0.425409  -0.049575   0.582230  -0.017080
    12  C    0.029022  -0.054247  -0.172438  -0.108840  -0.017080   7.433499
    13  C    0.019005  -0.009083  -0.239301  -0.001383  -0.008187  -0.508292
    14  C    0.285595  -0.023133   0.007490   0.000427  -0.000752  -0.000951
    15  H   -0.090643   0.005248   0.000897  -0.000005   0.000042  -0.001658
    16  H   -0.020107  -0.006892  -0.000530  -0.000054   0.000176   0.000242
    17  H   -0.016224  -0.002163   0.000902   0.000062  -0.000062   0.000316
    18  C   -0.001093   0.320792   0.002493   0.005510  -0.013058  -0.000603
    19  H    0.000059  -0.048958  -0.002174   0.000559   0.000143  -0.000166
    20  H    0.004074  -0.073226  -0.007690  -0.007251   0.002537   0.007849
    21  H   -0.000472  -0.024006  -0.009858  -0.000353   0.000715  -0.002645
    22  C    0.000204  -0.000074   0.010268  -0.001348   0.003454  -0.252817
    23  H   -0.000009   0.000001  -0.002127  -0.000132   0.000184  -0.011023
    24  H   -0.000032   0.000010   0.002691   0.000105  -0.000230   0.066342
    25  H    0.000010   0.000002   0.000215  -0.000026  -0.000105   0.019422
    26  C    0.002399   0.000834   0.022173   0.000163  -0.000726  -0.085336
    27  H   -0.000814  -0.000014  -0.000509   0.000034  -0.000003  -0.017348
    28  H   -0.000726   0.000001  -0.000113   0.000017  -0.000115  -0.008371
    29  H    0.003018  -0.000004  -0.000473  -0.000015   0.000087   0.023473
              13         14         15         16         17         18
     1  O    0.716513  -0.000008  -0.000000   0.000000  -0.000000   0.000286
     2  O   -0.000010   0.001545   0.004159   0.001455   0.002736  -0.099546
     3  N    0.001822  -0.033200   0.004224  -0.000218  -0.001915  -0.000464
     4  H    0.000573  -0.010104   0.002171   0.000811   0.000928   0.000022
     5  C    0.084145  -0.088658   0.022406  -0.007207  -0.010127  -0.250896
     6  C    0.124581   0.011844   0.006514  -0.001312  -0.001340  -0.000164
     7  C    0.019005   0.285595  -0.090643  -0.020107  -0.016224  -0.001093
     8  C   -0.009083  -0.023133   0.005248  -0.006892  -0.002163   0.320792
     9  C   -0.239301   0.007490   0.000897  -0.000530   0.000902   0.002493
    10  H   -0.001383   0.000427  -0.000005  -0.000054   0.000062   0.005510
    11  H   -0.008187  -0.000752   0.000042   0.000176  -0.000062  -0.013058
    12  C   -0.508292  -0.000951  -0.001658   0.000242   0.000316  -0.000603
    13  C    5.592304   0.000087  -0.000041  -0.000004  -0.000006   0.001524
    14  C    0.000087   5.013136   0.393150   0.414438   0.407601   0.001631
    15  H   -0.000041   0.393150   0.587273  -0.028778  -0.027029   0.000238
    16  H   -0.000004   0.414438  -0.028778   0.504519  -0.023508  -0.000218
    17  H   -0.000006   0.407601  -0.027029  -0.023508   0.500521   0.000046
    18  C    0.001524   0.001631   0.000238  -0.000218   0.000046   5.308531
    19  H   -0.000015  -0.000016  -0.000004   0.000041  -0.000031   0.398085
    20  H    0.000927   0.000067  -0.000015  -0.000026   0.000001   0.379897
    21  H   -0.000165  -0.000216  -0.000005   0.000012  -0.000007   0.399885
    22  C    0.275209  -0.000008   0.000002  -0.000000  -0.000000   0.000039
    23  H   -0.021643  -0.000001   0.000000  -0.000000   0.000000  -0.000002
    24  H   -0.100609   0.000003   0.000000  -0.000000   0.000000   0.000001
    25  H   -0.034039   0.000000   0.000000   0.000000  -0.000000  -0.000001
    26  C   -0.053698   0.000632   0.000282   0.000010  -0.000071   0.000006
    27  H    0.006698  -0.000100  -0.000005   0.000004  -0.000005  -0.000000
    28  H   -0.001731   0.000051  -0.000008  -0.000002   0.000001  -0.000000
    29  H   -0.001427  -0.000125   0.000098  -0.000002  -0.000001  -0.000000
              19         20         21         22         23         24
     1  O   -0.000000   0.000164  -0.000006  -0.105855   0.001423   0.005091
     2  O    0.007147   0.004210   0.000718   0.000000   0.000000  -0.000000
     3  N    0.000005   0.000109   0.000011  -0.000280   0.000019   0.000193
     4  H   -0.000001   0.000001  -0.000001   0.000119  -0.000011  -0.000057
     5  C    0.020864   0.045423   0.002670   0.003929  -0.000013  -0.000731
     6  C    0.000021  -0.001255   0.000203  -0.024949   0.008362  -0.025694
     7  C    0.000059   0.004074  -0.000472   0.000204  -0.000009  -0.000032
     8  C   -0.048958  -0.073226  -0.024006  -0.000074   0.000001   0.000010
     9  C   -0.002174  -0.007690  -0.009858   0.010268  -0.002127   0.002691
    10  H    0.000559  -0.007251  -0.000353  -0.001348  -0.000132   0.000105
    11  H    0.000143   0.002537   0.000715   0.003454   0.000184  -0.000230
    12  C   -0.000166   0.007849  -0.002645  -0.252817  -0.011023   0.066342
    13  C   -0.000015   0.000927  -0.000165   0.275209  -0.021643  -0.100609
    14  C   -0.000016   0.000067  -0.000216  -0.000008  -0.000001   0.000003
    15  H   -0.000004  -0.000015  -0.000005   0.000002   0.000000   0.000000
    16  H    0.000041  -0.000026   0.000012  -0.000000  -0.000000  -0.000000
    17  H   -0.000031   0.000001  -0.000007  -0.000000   0.000000   0.000000
    18  C    0.398085   0.379897   0.399885   0.000039  -0.000002   0.000001
    19  H    0.498280  -0.025516  -0.008671  -0.000000   0.000000   0.000000
    20  H   -0.025516   0.544995  -0.024305   0.000034  -0.000000  -0.000001
    21  H   -0.008671  -0.024305   0.494380  -0.000012   0.000000   0.000000
    22  C   -0.000000   0.000034  -0.000012   5.438250   0.399824   0.396210
    23  H    0.000000  -0.000000   0.000000   0.399824   0.495969  -0.028080
    24  H    0.000000  -0.000001   0.000000   0.396210  -0.028080   0.550643
    25  H   -0.000000  -0.000000   0.000000   0.382092  -0.007810  -0.022430
    26  C    0.000000  -0.000018   0.000003  -0.033906  -0.010211   0.016625
    27  H    0.000000   0.000000  -0.000000  -0.010694   0.000884  -0.001879
    28  H   -0.000000  -0.000000   0.000000   0.003690   0.000150  -0.007174
    29  H    0.000000   0.000000  -0.000000   0.002116   0.000172   0.000589
              25         26         27         28         29
     1  O    0.006582   0.000768  -0.000053  -0.000236   0.000023
     2  O    0.000000   0.000010  -0.000000  -0.000000   0.000000
     3  N    0.000022  -0.025486  -0.002546   0.001110   0.001779
     4  H   -0.000003  -0.006617   0.000496   0.000731   0.002083
     5  C   -0.000136   0.000424   0.000394   0.000062  -0.000344
     6  C   -0.000764   0.192810  -0.032469  -0.047697  -0.049125
     7  C    0.000010   0.002399  -0.000814  -0.000726   0.003018
     8  C    0.000002   0.000834  -0.000014   0.000001  -0.000004
     9  C    0.000215   0.022173  -0.000509  -0.000113  -0.000473
    10  H   -0.000026   0.000163   0.000034   0.000017  -0.000015
    11  H   -0.000105  -0.000726  -0.000003  -0.000115   0.000087
    12  C    0.019422  -0.085336  -0.017348  -0.008371   0.023473
    13  C   -0.034039  -0.053698   0.006698  -0.001731  -0.001427
    14  C    0.000000   0.000632  -0.000100   0.000051  -0.000125
    15  H    0.000000   0.000282  -0.000005  -0.000008   0.000098
    16  H    0.000000   0.000010   0.000004  -0.000002  -0.000002
    17  H   -0.000000  -0.000071  -0.000005   0.000001  -0.000001
    18  C   -0.000001   0.000006  -0.000000  -0.000000  -0.000000
    19  H   -0.000000   0.000000   0.000000  -0.000000   0.000000
    20  H   -0.000000  -0.000018   0.000000  -0.000000   0.000000
    21  H    0.000000   0.000003  -0.000000   0.000000  -0.000000
    22  C    0.382092  -0.033906  -0.010694   0.003690   0.002116
    23  H   -0.007810  -0.010211   0.000884   0.000150   0.000172
    24  H   -0.022430   0.016625  -0.001879  -0.007174   0.000589
    25  H    0.491728   0.001917   0.000121   0.000569  -0.000035
    26  C    0.001917   5.236522   0.426040   0.432736   0.387891
    27  H    0.000121   0.426040   0.481541  -0.027995  -0.016832
    28  H    0.000569   0.432736  -0.027995   0.505579  -0.024973
    29  H   -0.000035   0.387891  -0.016832  -0.024973   0.518112
 Mulliken charges:
               1
     1  O   -0.362508
     2  O   -0.364476
     3  N   -0.217836
     4  H    0.279556
     5  C   -0.060330
     6  C    0.260886
     7  C    0.159851
     8  C    0.153176
     9  C   -0.295769
    10  H    0.162047
    11  H    0.151713
    12  C   -0.145580
    13  C    0.156245
    14  C   -0.380428
    15  H    0.121487
    16  H    0.167150
    17  H    0.169373
    18  C   -0.452942
    19  H    0.160349
    20  H    0.149015
    21  H    0.172124
    22  C   -0.485498
    23  H    0.174073
    24  H    0.148414
    25  H    0.162670
    26  C   -0.506175
    27  H    0.195054
    28  H    0.174445
    29  H    0.153916
 Sum of Mulliken charges =  -0.00000
 Mulliken charges with hydrogens summed into heavy atoms:
               1
     1  O   -0.362508
     2  O   -0.364476
     3  N    0.061720
     5  C   -0.060330
     6  C    0.260886
     7  C    0.159851
     8  C    0.153176
     9  C    0.017992
    12  C   -0.145580
    13  C    0.156245
    14  C    0.077581
    18  C    0.028546
    22  C   -0.000342
    26  C    0.017239
 Electronic spatial extent (au):  <R**2>=           3205.1751
 Charge=              0.0000 electrons
 Dipole moment (field-independent basis, Debye):
    X=              3.6072    Y=              7.4026    Z=              0.2204  Tot=              8.2377
 Quadrupole moment (field-independent basis, Debye-Ang):
   XX=            -96.8838   YY=            -78.2721   ZZ=            -84.9700
   XY=             12.4674   XZ=              3.7976   YZ=             -2.2997
 Traceless Quadrupole moment (field-independent basis, Debye-Ang):
   XX=            -10.1752   YY=              8.4366   ZZ=              1.7386
   XY=             12.4674   XZ=              3.7976   YZ=             -2.2997
 Octapole moment (field-independent basis, Debye-Ang**2):
  XXX=            103.6305  YYY=             63.3365  ZZZ=              1.2623  XYY=            -35.4891
  XXY=             30.8666  XXZ=             -3.9070  XZZ=              0.0978  YZZ=             -1.3529
  YYZ=              4.8357  XYZ=             -5.2141
 Hexadecapole moment (field-independent basis, Debye-Ang**3):
 XXXX=          -3041.2728 YYYY=          -1296.2988 ZZZZ=           -142.3438 XXXY=             35.5985
 XXXZ=             40.6836 YYYX=             89.3102 YYYZ=            -19.3443 ZZZX=             -3.9324
 ZZZY=              2.0093 XXYY=           -688.1464 XXZZ=           -478.5171 YYZZ=           -245.6114
 XXYZ=            -10.5048 YYXZ=              9.7910 ZZXY=              0.1031
 N-N= 8.991344319673D+02 E-N=-3.274290304326D+03  KE= 6.306447013659D+02
 No NMR shielding tensors so no spin-rotation constants.
 Leave Link  601 at Fri Jan 23 22:35:19 2026, MaxMem=  2147483648 cpu:               1.8 elap:               0.1
 (Enter /data/home/wyx/g16/l9999.exe)
 1\1\GINC-CN012\SP\RCAM-B3LYP\TZVP\C11H15N1O2\WYX\23-Jan-2026\0\\#p CAM
 -B3LYP TZVP em=gd3bj scrf=(Solvent=TetraHydroFuran,NonEquilibrium=Read
 ) Geom=Check Guess=Read\\Title Card Required\\0,1\O,0,2.839691,-1.5733
 84,0.037849\O,0,-3.429203,-1.648793,-0.14129\N,0,-0.664952,1.517747,-0
 .185688\H,0,-0.976814,2.478348,-0.235218\C,0,-1.248428,-0.762655,-0.20
 1081\C,0,0.678995,1.334892,-0.023667\C,0,-1.63861,0.578642,-0.238255\C
 ,0,-2.21189,-1.846455,-0.182765\C,0,0.194308,-1.082668,-0.190208\H,0,0
 .406434,-1.888397,0.521548\H,0,0.474092,-1.562221,-1.146582\C,0,1.1474
 34,0.025849,0.041424\C,0,2.517919,-0.401916,0.269951\C,0,-3.027428,1.1
 05125,-0.349093\H,0,-3.024235,2.189528,-0.454009\H,0,-3.543492,0.67592
 9,-1.203654\H,0,-3.619066,0.845626,0.525216\C,0,-1.708565,-3.268057,-0
 .185138\H,0,-2.516063,-3.926818,-0.488508\H,0,-0.858139,-3.42479,-0.84
 2902\H,0,-1.398197,-3.560573,0.818638\C,0,3.566365,0.527674,0.831886\H
 ,0,4.0722,1.06698,0.028207\H,0,3.163894,1.257182,1.529871\H,0,4.31009,
 -0.083283,1.33901\C,0,1.469592,2.600083,0.025453\H,0,1.716045,2.895922
 ,1.046065\H,0,2.400273,2.510419,-0.526187\H,0,0.90775,3.420064,-0.4208
 71\\Version=ES64L-G16RevA.03\State=1-A\HF=-633.3194233\RMSD=8.070e-09\
 Dipole=0.3483977,3.2205194,0.1032403\Quadrupole=-12.4196689,10.5676181
 ,1.8520508,2.8817366,1.6696427,-0.4081513\PG=C01 [X(C11H15N1O2)]\\@


      TO SUSPECT YOUR OWN MORTALITY IS TO KNOW THE BEGINNING OF TERROR.
      TO LEARN IRREFUTABLY THAT YOU ARE MORTAL IS TO KNOW THE END
      OF TERROR.

                                                  -- JESSICA
                                                     CHILDREN OF DUNE
                                                     BY FRANK HERBERT
 Job cpu time:       0 days  0 hours 12 minutes 43.5 seconds.
 Elapsed time:       0 days  0 hours  0 minutes 48.5 seconds.
 File lengths (MBytes):  RWF=    337 Int=      0 D2E=      0 Chk=     67 Scr=      1
 Normal termination of Gaussian 16 at Fri Jan 23 22:35:20 2026.
