 Entering Gaussian System, Link 0=g16
 Input=DDL-S1-cLR-gs-7.gjf
 Output=DDL-S1-cLR-gs-7.log
 Initial command:
 /data/home/wyx/g16/l1.exe "/scr/tmp/wyx/13106/Gau-1985800.inp" -scrdir="/scr/tmp/wyx/13106/"
 Entering Link 1 = /data/home/wyx/g16/l1.exe PID=   1985801.
  
 Copyright (c) 1988,1990,1992,1993,1995,1998,2003,2009,2016,
            Gaussian, Inc.  All Rights Reserved.
  
 This is part of the Gaussian(R) 16 program.  It is based on
 the Gaussian(R) 09 system (copyright 2009, Gaussian, Inc.),
 the Gaussian(R) 03 system (copyright 2003, Gaussian, Inc.),
 the Gaussian(R) 98 system (copyright 1998, Gaussian, Inc.),
 the Gaussian(R) 94 system (copyright 1995, Gaussian, Inc.),
 the Gaussian 92(TM) system (copyright 1992, Gaussian, Inc.),
 the Gaussian 90(TM) system (copyright 1990, Gaussian, Inc.),
 the Gaussian 88(TM) system (copyright 1988, Gaussian, Inc.),
 the Gaussian 86(TM) system (copyright 1986, Carnegie Mellon
 University), and the Gaussian 82(TM) system (copyright 1983,
 Carnegie Mellon University). Gaussian is a federally registered
 trademark of Gaussian, Inc.
  
 This software contains proprietary and confidential information,
 including trade secrets, belonging to Gaussian, Inc.
  
 This software is provided under written license and may be
 used, copied, transmitted, or stored only in accord with that
 written license.
  
 The following legend is applicable only to US Government
 contracts under FAR:
  
                    RESTRICTED RIGHTS LEGEND
  
 Use, reproduction and disclosure by the US Government is
 subject to restrictions as set forth in subparagraphs (a)
 and (c) of the Commercial Computer Software - Restricted
 Rights clause in FAR 52.227-19.
  
 Gaussian, Inc.
 340 Quinnipiac St., Bldg. 40, Wallingford CT 06492
  
  
 ---------------------------------------------------------------
 Warning -- This program may not be used in any manner that
 competes with the business of Gaussian, Inc. or will provide
 assistance to any competitor of Gaussian, Inc.  The licensee
 of this program is prohibited from giving any competitor of
 Gaussian, Inc. access to this program.  By using this program,
 the user acknowledges that Gaussian, Inc. is engaged in the
 business of creating and licensing software in the field of
 computational chemistry and represents and warrants to the
 licensee that it is not a competitor of Gaussian, Inc. and that
 it will not use this program in any manner prohibited above.
 ---------------------------------------------------------------
  

 Cite this work as:
 Gaussian 16, Revision A.03,
 M. J. Frisch, G. W. Trucks, H. B. Schlegel, G. E. Scuseria, 
 M. A. Robb, J. R. Cheeseman, G. Scalmani, V. Barone, 
 G. A. Petersson, H. Nakatsuji, X. Li, M. Caricato, A. V. Marenich, 
 J. Bloino, B. G. Janesko, R. Gomperts, B. Mennucci, H. P. Hratchian, 
 J. V. Ortiz, A. F. Izmaylov, J. L. Sonnenberg, D. Williams-Young, 
 F. Ding, F. Lipparini, F. Egidi, J. Goings, B. Peng, A. Petrone, 
 T. Henderson, D. Ranasinghe, V. G. Zakrzewski, J. Gao, N. Rega, 
 G. Zheng, W. Liang, M. Hada, M. Ehara, K. Toyota, R. Fukuda, 
 J. Hasegawa, M. Ishida, T. Nakajima, Y. Honda, O. Kitao, H. Nakai, 
 T. Vreven, K. Throssell, J. A. Montgomery, Jr., J. E. Peralta, 
 F. Ogliaro, M. J. Bearpark, J. J. Heyd, E. N. Brothers, K. N. Kudin, 
 V. N. Staroverov, T. A. Keith, R. Kobayashi, J. Normand, 
 K. Raghavachari, A. P. Rendell, J. C. Burant, S. S. Iyengar, 
 J. Tomasi, M. Cossi, J. M. Millam, M. Klene, C. Adamo, R. Cammi, 
 J. W. Ochterski, R. L. Martin, K. Morokuma, O. Farkas, 
 J. B. Foresman, and D. J. Fox, Gaussian, Inc., Wallingford CT, 2016.
 
 ******************************************
 Gaussian 16:  ES64L-G16RevA.03 25-Dec-2016
                23-Jan-2026 
 ******************************************
 %nprocshared=16
 Will use up to   16 processors via shared memory.
 %mem=16GB
 %oldchk=DDL-S1-cLR-7.chk
 %chk=DDL-S1-cLR-gs-7.chk
 Copying data from "DDL-S1-cLR-7.chk" to current chk file "DDL-S1-cLR-gs-7.chk"
 IOpt=  2 FromEx=T IUOpen= 4 IOptOp= 5 NList=   0 IFRang= 0 IUIn= 4 IUOut= 2.
 ----------------------------------------------------------------------
 #p CAM-B3LYP TZVP em=gd3bj scrf=(Solvent=TetraHydroFuran,NonEquilibriu
 m=Read) Geom=Check Guess=Read
 ----------------------------------------------------------------------
 1/29=2,38=1,172=1/1;
 2/12=2,40=1/2;
 3/5=19,7=101,11=2,14=-4,25=1,30=1,70=6002201,72=20,74=-40,116=-2,124=41/1,2,3;
 4/5=1/1;
 5/5=2,38=6,53=20/2;
 6/7=2,8=2,9=2,10=2,28=1/1;
 99/5=1,9=1/99;
 Leave Link    1 at Fri Jan 23 22:40:41 2026, MaxMem=  2147483648 cpu:               6.3 elap:               0.6
 (Enter /data/home/wyx/g16/l101.exe)
 -------------------
 Title Card Required
 -------------------
 Structure from the checkpoint file:  "DDL-S1-cLR-gs-7.chk"
 Charge =  0 Multiplicity = 1
 Z-Matrix found in chk file.
 O,0,2.838465,-1.570358,0.07902
 O,0,-3.4266,-1.638653,-0.062623
 N,0,-0.653994,1.515412,-0.250937
 H,0,-0.964881,2.474722,-0.302122
 C,0,-1.244676,-0.760561,-0.209157
 C,0,0.686978,1.32176,-0.053511
 C,0,-1.62836,0.566784,-0.257947
 C,0,-2.216337,-1.839589,-0.152746
 C,0,0.203507,-1.092919,-0.249185
 H,0,0.428903,-1.913571,0.436692
 H,0,0.461299,-1.528391,-1.229056
 C,0,1.148878,0.024885,0.021429
 C,0,2.516298,-0.398923,0.29022
 C,0,-3.016382,1.099118,-0.330496
 H,0,-3.016773,2.174666,-0.498146
 H,0,-3.579167,0.623799,-1.126949
 H,0,-3.561889,0.896921,0.587044
 C,0,-1.717988,-3.258967,-0.187447
 H,0,-2.542786,-3.926465,-0.409669
 H,0,-0.930823,-3.41539,-0.918743
 H,0,-1.310522,-3.54344,0.781541
 C,0,3.553956,0.533416,0.866513
 H,0,4.063063,1.078634,0.069273
 H,0,3.139936,1.257691,1.563139
 H,0,4.296261,-0.075783,1.377367
 C,0,1.46814,2.591157,0.028066
 H,0,1.645233,2.895303,1.059564
 H,0,2.430542,2.505552,-0.462774
 H,0,0.929718,3.403189,-0.458361
 Recover connectivity data from disk.
 ITRead=  0  0  0  0  0  0  0  0  0  0  0  0  0  0  0  0  0  0  0  0
 ITRead=  0  0  0  0  0  0  0  0  0
 MicOpt= -1 -1 -1 -1 -1 -1 -1 -1 -1 -1 -1 -1 -1 -1 -1 -1 -1 -1 -1 -1
 MicOpt= -1 -1 -1 -1 -1 -1 -1 -1 -1
 NAtoms=     29 NQM=       29 NQMF=       0 NMMI=      0 NMMIF=      0
                NMic=       0 NMicF=      0.
                    Isotopes and Nuclear Properties:
 (Nuclear quadrupole moments (NQMom) in fm**2, nuclear magnetic moments (NMagM)
  in nuclear magnetons)

  Atom         1           2           3           4           5           6           7           8           9          10
 IAtWgt=          16          16          14           1          12          12          12          12          12           1
 AtmWgt=  15.9949146  15.9949146  14.0030740   1.0078250  12.0000000  12.0000000  12.0000000  12.0000000  12.0000000   1.0078250
 NucSpn=           0           0           2           1           0           0           0           0           0           1
 AtZEff=   5.6000000   5.6000000   4.5500000   1.0000000   3.6000000   3.6000000   3.6000000   3.6000000   3.6000000   1.0000000
 NQMom=    0.0000000   0.0000000   2.0440000   0.0000000   0.0000000   0.0000000   0.0000000   0.0000000   0.0000000   0.0000000
 NMagM=    0.0000000   0.0000000   0.4037610   2.7928460   0.0000000   0.0000000   0.0000000   0.0000000   0.0000000   2.7928460
 AtZNuc=   8.0000000   8.0000000   7.0000000   1.0000000   6.0000000   6.0000000   6.0000000   6.0000000   6.0000000   1.0000000

  Atom        11          12          13          14          15          16          17          18          19          20
 IAtWgt=           1          12          12          12           1           1           1          12           1           1
 AtmWgt=   1.0078250  12.0000000  12.0000000  12.0000000   1.0078250   1.0078250   1.0078250  12.0000000   1.0078250   1.0078250
 NucSpn=           1           0           0           0           1           1           1           0           1           1
 AtZEff=   1.0000000   3.6000000   3.6000000   3.6000000   1.0000000   1.0000000   1.0000000   3.6000000   1.0000000   1.0000000
 NQMom=    0.0000000   0.0000000   0.0000000   0.0000000   0.0000000   0.0000000   0.0000000   0.0000000   0.0000000   0.0000000
 NMagM=    2.7928460   0.0000000   0.0000000   0.0000000   2.7928460   2.7928460   2.7928460   0.0000000   2.7928460   2.7928460
 AtZNuc=   1.0000000   6.0000000   6.0000000   6.0000000   1.0000000   1.0000000   1.0000000   6.0000000   1.0000000   1.0000000

  Atom        21          22          23          24          25          26          27          28          29
 IAtWgt=           1          12           1           1           1          12           1           1           1
 AtmWgt=   1.0078250  12.0000000   1.0078250   1.0078250   1.0078250  12.0000000   1.0078250   1.0078250   1.0078250
 NucSpn=           1           0           1           1           1           0           1           1           1
 AtZEff=   1.0000000   3.6000000   1.0000000   1.0000000   1.0000000   3.6000000   1.0000000   1.0000000   1.0000000
 NQMom=    0.0000000   0.0000000   0.0000000   0.0000000   0.0000000   0.0000000   0.0000000   0.0000000   0.0000000
 NMagM=    2.7928460   0.0000000   2.7928460   2.7928460   2.7928460   0.0000000   2.7928460   2.7928460   2.7928460
 AtZNuc=   1.0000000   6.0000000   1.0000000   1.0000000   1.0000000   6.0000000   1.0000000   1.0000000   1.0000000
 Leave Link  101 at Fri Jan 23 22:40:45 2026, MaxMem=  2147483648 cpu:               0.9 elap:               0.1
 (Enter /data/home/wyx/g16/l202.exe)
                          Input orientation:                          
 ---------------------------------------------------------------------
 Center     Atomic      Atomic             Coordinates (Angstroms)
 Number     Number       Type             X           Y           Z
 ---------------------------------------------------------------------
      1          8           0        2.838465   -1.570358    0.079020
      2          8           0       -3.426600   -1.638653   -0.062623
      3          7           0       -0.653994    1.515412   -0.250937
      4          1           0       -0.964881    2.474722   -0.302122
      5          6           0       -1.244676   -0.760561   -0.209157
      6          6           0        0.686978    1.321760   -0.053511
      7          6           0       -1.628360    0.566784   -0.257947
      8          6           0       -2.216337   -1.839589   -0.152746
      9          6           0        0.203507   -1.092919   -0.249185
     10          1           0        0.428903   -1.913571    0.436692
     11          1           0        0.461299   -1.528391   -1.229056
     12          6           0        1.148878    0.024885    0.021429
     13          6           0        2.516298   -0.398923    0.290220
     14          6           0       -3.016382    1.099118   -0.330496
     15          1           0       -3.016773    2.174666   -0.498146
     16          1           0       -3.579167    0.623799   -1.126949
     17          1           0       -3.561889    0.896921    0.587044
     18          6           0       -1.717988   -3.258967   -0.187447
     19          1           0       -2.542786   -3.926465   -0.409669
     20          1           0       -0.930823   -3.415390   -0.918743
     21          1           0       -1.310522   -3.543440    0.781541
     22          6           0        3.553956    0.533416    0.866513
     23          1           0        4.063063    1.078634    0.069273
     24          1           0        3.139936    1.257691    1.563139
     25          1           0        4.296261   -0.075783    1.377367
     26          6           0        1.468140    2.591157    0.028066
     27          1           0        1.645233    2.895303    1.059564
     28          1           0        2.430542    2.505552   -0.462774
     29          1           0        0.929718    3.403189   -0.458361
 ---------------------------------------------------------------------
                    Distance matrix (angstroms):
                    1          2          3          4          5
     1  O    0.000000
     2  O    6.267038   0.000000
     3  N    4.672057   4.203681   0.000000
     4  H    5.565374   4.799716   1.009726   0.000000
     5  C    4.172632   2.356546   2.351745   3.248690   0.000000
     6  C    3.607050   5.068101   1.369191   2.029721   2.844569
     7  C    4.963209   2.852327   1.359902   2.020491   1.382548
     8  C    5.067270   1.230136   3.702241   4.494634   1.453138
     9  C    2.697901   3.675637   2.745670   3.754463   1.486371
    10  H    2.460023   3.897409   3.661069   4.663217   2.132468
    11  H    2.713622   4.060601   3.386050   4.349495   2.130753
    12  C    2.324397   4.869232   2.355037   3.251825   2.529663
    13  C    1.233149   6.081074   3.742764   4.552726   3.811179
    14  C    6.447716   2.781263   2.400106   2.470172   2.571395
    15  H    6.974392   3.859927   2.465452   2.082959   3.440843
    16  H    6.888736   2.504946   3.181039   3.307680   2.865073
    17  H    6.878233   2.620974   3.088786   3.166153   2.958151
    18  C    4.866587   2.358040   4.891913   5.784074   2.542937
    19  H    5.894737   2.477025   5.762530   6.593675   3.427571
    20  H    4.313607   3.180981   4.983514   5.922398   2.765887
    21  H    4.647653   2.969615   5.204712   6.124710   2.954697
    22  C    2.357528   7.369487   4.463166   5.055123   5.085107
    23  H    2.918372   7.968444   4.748046   5.231369   5.624256
    24  H    3.208014   7.358757   4.213217   4.670106   5.141906
    25  H    2.458583   8.009914   5.448697   6.083204   5.804133
    26  C    4.381620   6.469776   2.395521   2.458083   4.318525
    27  H    4.725188   6.894893   2.984620   2.973848   4.829759
    28  H    4.131947   7.186144   3.246477   3.399361   4.923316
    29  H    5.354275   6.674900   2.472826   2.115648   4.703925
                    6          7          8          9         10
     6  C    0.000000
     7  C    2.443885   0.000000
     8  C    4.293392   2.479398   0.000000
     9  C    2.470366   2.471928   2.534258   0.000000
    10  H    3.282418   3.296516   2.711126   1.093023   0.000000
    11  H    3.091310   3.114400   2.902589   1.102833   1.710009
    12  C    1.378714   2.843371   3.851139   1.488773   2.109128
    13  C    2.534820   4.290835   4.966847   2.474185   2.583182
    14  C    3.720372   1.488371   3.050847   3.896065   4.640567
    15  H    3.826607   2.137913   4.107827   4.594485   5.427733
    16  H    4.454145   2.136367   2.979036   4.245729   4.994782
    17  H    4.317832   2.135775   3.137879   4.340155   4.883430
    18  C    5.175409   3.827450   1.504722   2.896156   2.609364
    19  H    6.172689   4.587862   2.127823   3.949286   3.687683
    20  H    5.080010   4.096452   2.173119   2.669997   2.437523
    21  H    5.325175   4.251529   2.143945   3.059368   2.408525
    22  C    3.112474   5.303011   6.321892   3.887834   3.992299
    23  H    3.387054   5.723754   6.927928   4.439958   4.721801
    24  H    2.938480   5.150762   6.420831   4.175225   4.321514
    25  H    4.126435   6.179667   6.918540   4.520052   4.383924
    26  C    1.492728   3.710553   5.765377   3.904943   4.641073
    27  H    2.152493   4.227795   6.229014   4.438165   4.999270
    28  H    2.146829   4.502828   6.369447   4.237251   4.933989
    29  H    2.134285   3.824804   6.121910   4.559180   5.414783
                   11         12         13         14         15
    11  H    0.000000
    12  C    2.109299   0.000000
    13  C    2.794086   1.456605   0.000000
    14  C    4.450335   4.315926   5.765411   0.000000
    15  H    5.132626   4.716372   6.153028   1.088536   0.000000
    16  H    4.579052   4.902232   6.341058   1.084893   1.765466
    17  H    5.036507   4.824074   6.221871   1.086435   1.762788
    18  C    2.971386   4.364199   5.131978   4.549637   5.595332
    19  H    3.930227   5.424702   6.207071   5.048470   6.120155
    20  H    2.365389   4.128507   4.737437   5.007632   5.981372
    21  H    3.352950   4.399927   4.977342   5.069510   6.102920
    22  C    4.266964   2.599456   1.509339   6.702402   6.908725
    23  H    4.631948   3.099218   2.150459   7.090753   7.186608
    24  H    4.767987   2.803746   2.180279   6.442922   6.557042
    25  H    4.859058   3.428516   2.110587   7.600785   7.877978
    26  C    4.423207   2.586063   3.179298   4.739798   4.534844
    27  H    5.119429   3.092473   3.493218   5.185480   4.967905
    28  H    4.553878   2.833871   3.001721   5.627125   5.457470
    29  H    5.013369   3.419235   4.187322   4.571302   4.133478
                   16         17         18         19         20
    16  H    0.000000
    17  H    1.735703   0.000000
    18  C    4.407099   4.612072   0.000000
    19  H    4.721597   5.029618   1.084079   0.000000
    20  H    4.834472   5.271236   1.085767   1.766006   0.000000
    21  H    5.114193   4.982297   1.088986   1.756179   1.746864
    22  C    7.406990   7.130602   6.579240   7.660903   6.236461
    23  H    7.748645   7.644671   7.231960   8.301665   6.790532
    24  H    7.265311   6.782136   6.860334   7.941081   6.675965
    25  H    8.293575   7.957467   6.982299   8.049460   6.614190
    26  C    5.538941   5.337048   6.664969   7.665412   6.536825
    27  H    6.102043   5.597403   7.123295   8.138468   7.097507
    28  H    6.332355   6.292777   7.107446   8.130661   6.823799
    29  H    5.338732   5.248694   7.174125   8.110763   7.082837
                   21         22         23         24         25
    21  H    0.000000
    22  C    6.347529   0.000000
    23  H    7.123644   1.091808   0.000000
    24  H    6.593052   1.086865   1.765180   0.000000
    25  H    6.619341   1.087709   1.760162   1.774754   0.000000
    26  C    6.776575   3.047609   3.003839   2.632391   4.114784
    27  H    7.090218   3.042861   3.182273   2.273653   3.994534
    28  H    7.220401   2.630282   2.232553   2.482886   3.678358
    29  H    7.403492   4.108225   3.936979   3.684384   5.177524
                   26         27         28         29
    26  C    0.000000
    27  H    1.089888   0.000000
    28  H    1.083730   1.756738   0.000000
    29  H    1.088993   1.753284   1.748784   0.000000
 Stoichiometry    C11H15NO2
 Framework group  C1[X(C11H15NO2)]
 Deg. of freedom    81
 Full point group                 C1      NOp   1
 RotChk:  IX=0 Diff= 4.10D-16
 Largest Abelian subgroup         C1      NOp   1
 Largest concise Abelian subgroup C1      NOp   1
                         Standard orientation:                         
 ---------------------------------------------------------------------
 Center     Atomic      Atomic             Coordinates (Angstroms)
 Number     Number       Type             X           Y           Z
 ---------------------------------------------------------------------
      1          8           0        2.286078   -2.282415   -0.244857
      2          8           0       -3.616853   -0.254138    0.318399
      3          7           0        0.020844    1.802378   -0.138584
      4          1           0        0.047288    2.811753   -0.141665
      5          6           0       -1.293549   -0.146224   -0.060972
      6          6           0        1.231208    1.163722   -0.095889
      7          6           0       -1.211214    1.233814   -0.048574
      8          6           0       -2.560502   -0.841669    0.090007
      9          6           0       -0.053573   -0.939225   -0.268114
     10          1           0       -0.048989   -1.821526    0.377040
     11          1           0       -0.058169   -1.385766   -1.276489
     12          6           0        1.235005   -0.214977   -0.090699
     13          6           0        2.399952   -1.082750    0.016856
     14          6           0       -2.339022    2.200759    0.042614
     15          1           0       -1.994601    3.222094   -0.109566
     16          1           0       -3.106658    1.980610   -0.691730
     17          1           0       -2.824628    2.145762    1.012926
     18          6           0       -2.574918   -2.342334   -0.019474
     19          1           0       -3.594220   -2.685132   -0.156368
     20          1           0       -1.964795   -2.714840   -0.836713
     21          1           0       -2.190770   -2.794611    0.893635
     22          6           0        3.743571   -0.579248    0.485125
     23          1           0        4.322698   -0.195192   -0.356990
     24          1           0        3.670301    0.205499    1.233508
     25          1           0        4.285469   -1.425693    0.901045
     26          6           0        2.397853    2.094890   -0.085795
     27          1           0        2.770668    2.270411    0.923192
     28          1           0        3.220270    1.718633   -0.682899
     29          1           0        2.117549    3.063232   -0.497680
 ---------------------------------------------------------------------
 Rotational constants (GHZ):           1.0774734           0.4903628           0.3443071
 Leave Link  202 at Fri Jan 23 22:40:45 2026, MaxMem=  2147483648 cpu:               0.0 elap:               0.0
 (Enter /data/home/wyx/g16/l301.exe)
 Standard basis: TZVP (5D, 7F)
 Ernie: Thresh=  0.10000D-02 Tol=  0.10000D-05 Strict=F.
 There are   370 symmetry adapted cartesian basis functions of A   symmetry.
 There are   356 symmetry adapted basis functions of A   symmetry.
   356 basis functions,   610 primitive gaussians,   370 cartesian basis functions
    52 alpha electrons       52 beta electrons
       nuclear repulsion energy       900.1799649343 Hartrees.
 IExCor=20419 DFT=T Ex+Corr=CAM-B3LYP ExCW=0 ScaHFX=  1.000000
 ScaDFX=  1.000000  1.000000  1.000000  0.810000 ScalE2=  1.000000  1.000000
 IRadAn=      5 IRanWt=     -1 IRanGd=            0 ICorTp=0 IEmpDi=141
 HFx  wShort=  0.000000 wLong=  0.330000 cFull=  0.190000 cShort=  0.000000 cLong=  0.460000
 DFx  wShort=  0.000000 wLong=  0.330000 cFull=  0.190000 cShort=  0.000000 cLong=  0.460000
 NAtoms=   29 NActive=   29 NUniq=   29 SFac= 1.00D+00 NAtFMM=   60 NAOKFM=F Big=F
 Integral buffers will be    131072 words long.
 Raffenetti 2 integral format.
 Two-electron integral symmetry is turned on.
 R6Disp:  Grimme-D3(BJ) Dispersion energy=       -0.0261617359 Hartrees.
 Nuclear repulsion after empirical dispersion term =      900.1538031984 Hartrees.
 ------------------------------------------------------------------------------
 Polarizable Continuum Model (PCM)
 =================================
 Model                : PCM.
 Atomic radii         : UFF (Universal Force Field).
 Polarization charges : Total charges.
 Charge compensation  : None.
 Solution method      : On-the-fly selection.
 Cavity type          : Scaled VdW (van der Waals Surface) (Alpha=1.100).
 Cavity algorithm     : GePol (No added spheres)
                        Default sphere list used, NSphG=   29.
                        Lebedev-Laikov grids with approx.  5.0 points / Ang**2.
                        Smoothing algorithm: York/Karplus (Gamma=1.0000).
                        Polarization charges: spherical gaussians, with
                                              point-specific exponents (IZeta= 3).
                        Self-potential: point-specific (ISelfS= 7).
                        Self-field    : sphere-specific E.n sum rule (ISelfD= 2).
 Solvent              : TetraHydroFuran, Eps=   7.425700 Eps(inf)=   1.974025
 ------------------------------------------------------------------------------
 GePol: Number of generator spheres                  =      29
 GePol: Total number of spheres                      =      29
 GePol: Number of exposed spheres                    =      29 (100.00%)
 GePol: Number of points                             =    2124
 GePol: Average weight of points                     =       0.13
 GePol: Minimum weight of points                     =   0.40D-09
 GePol: Maximum weight of points                     =    0.20577
 GePol: Number of points with low weight             =     140
 GePol: Fraction of low-weight points (<1% of avg)   =       6.59%
 GePol: Cavity surface area                          =    268.604 Ang**2
 GePol: Cavity volume                                =    286.664 Ang**3
 Leave Link  301 at Fri Jan 23 22:40:46 2026, MaxMem=  2147483648 cpu:               0.6 elap:               0.1
 (Enter /data/home/wyx/g16/l302.exe)
 NPDir=0 NMtPBC=     1 NCelOv=     1 NCel=       1 NClECP=     1 NCelD=      1
         NCelK=      1 NCelE2=     1 NClLst=     1 CellRange=     0.0.
 One-electron integrals computed using PRISM.
 One-electron integral symmetry used in STVInt
 NBasis=   356 RedAO= T EigKep=  4.50D-05  NBF=   356
 NBsUse=   356 1.00D-06 EigRej= -1.00D+00 NBFU=   356
 Precomputing XC quadrature grid using
 IXCGrd= 4 IRadAn=           5 IRanWt=          -1 IRanGd=           0 AccXCQ= 0.00D+00.
 Generated NRdTot=       0 NPtTot=           0 NUsed=           0 NTot=          32
 NSgBfM=   366   366   366   366   366 MxSgAt=    29 MxSgA2=    29.
 Leave Link  302 at Fri Jan 23 22:40:46 2026, MaxMem=  2147483648 cpu:               3.1 elap:               0.2
 (Enter /data/home/wyx/g16/l303.exe)
 DipDrv:  MaxL=1.
 Leave Link  303 at Fri Jan 23 22:40:46 2026, MaxMem=  2147483648 cpu:               0.6 elap:               0.1
 (Enter /data/home/wyx/g16/l401.exe)
 Initial guess from the checkpoint file:  "DDL-S1-cLR-gs-7.chk"
 B after Tr=     0.000000   -0.000000   -0.000000
         Rot=    1.000000   -0.000000    0.000000   -0.000000 Ang=   0.00 deg.
 Guess basis will be translated and rotated to current coordinates.
 JPrj=2 DoOrth=T DoCkMO=T.
 Leave Link  401 at Fri Jan 23 22:40:47 2026, MaxMem=  2147483648 cpu:               2.2 elap:               0.2
 (Enter /data/home/wyx/g16/l502.exe)
 Integral symmetry usage will be decided dynamically.
 Closed shell SCF:
 Using DIIS extrapolation, IDIIS=  1040.
 NGot=  2147483648 LenX=  2147200095 LenY=  2147062754
 Requested convergence on RMS density matrix=1.00D-08 within 128 cycles.
 Requested convergence on MAX density matrix=1.00D-06.
 Requested convergence on             energy=1.00D-06.
 No special actions if energy rises.
 Fock matrices will be formed incrementally for  20 cycles.

 Cycle   1  Pass 1  IDiag  1:
 FoFJK:  IHMeth= 1 ICntrl=       0 DoSepK=T KAlg= 0 I1Cent=           0 FoldK=F
 IRaf=         1 NMat=       1 IRICut=       1 DoRegI=T DoRafI=F ISym2E= 0 IDoP0=0 IntGTp=1.
 FoFCou: FMM=F IPFlag=           0 FMFlag=      100000 FMFlg1=           0
         NFxFlg=           0 DoJE=T BraDBF=F KetDBF=F FulRan=T
         wScrn=  0.000000 ICntrl=       500 IOpCl=  0 I1Cent=           0 NGrid=           0
         NMat0=    1 NMatS0=      1 NMatT0=    0 NMatD0=    1 NMtDS0=    0 NMtDT0=    0
 Symmetry not used in FoFCou.
 Inv3:  Mode=1 IEnd=    13534128.
 Iteration    1 A*A^-1 deviation from unit magnitude is 2.89D-15 for    168.
 Iteration    1 A*A^-1 deviation from orthogonality  is 2.02D-15 for   1315    438.
 Iteration    1 A^-1*A deviation from unit magnitude is 3.00D-15 for    389.
 Iteration    1 A^-1*A deviation from orthogonality  is 2.27D-15 for   1546   1126.
 NEqPCM:  Using non-equilibrium solvation (IEInf=1, Eps=   7.4257, EpsInf=   1.9740)
 Inv3:  Mode=1 IEnd=    13534128.
 Iteration    1 A*A^-1 deviation from unit magnitude is 2.89D-15 for    193.
 Iteration    1 A*A^-1 deviation from orthogonality  is 1.67D-15 for   2092   1046.
 Iteration    1 A^-1*A deviation from unit magnitude is 3.11D-15 for   1009.
 Iteration    1 A^-1*A deviation from orthogonality  is 1.46D-15 for   1697   1532.
 E= -633.324474860335    
 DIIS: error= 2.12D-04 at cycle   1 NSaved=   1.
 NSaved= 1 IEnMin= 1 EnMin= -633.324474860335     IErMin= 1 ErrMin= 2.12D-04
 ErrMax= 2.12D-04  0.00D+00 EMaxC= 1.00D-01 BMatC= 1.02D-05 BMatP= 1.02D-05
 IDIUse=3 WtCom= 9.98D-01 WtEn= 2.12D-03
 Coeff-Com:  0.100D+01
 Coeff-En:   0.100D+01
 Coeff:      0.100D+01
 Gap=     0.224 Goal=   None    Shift=    0.000
 RMSDP=1.40D-04 MaxDP=8.41D-03              OVMax= 2.92D-03

 Cycle   2  Pass 1  IDiag  1:
 RMSU=  1.40D-04    CP:  9.99D-01
 E= -633.324493959750     Delta-E=       -0.000019099415 Rises=F Damp=F
 DIIS: error= 1.06D-04 at cycle   2 NSaved=   2.
 NSaved= 2 IEnMin= 2 EnMin= -633.324493959750     IErMin= 2 ErrMin= 1.06D-04
 ErrMax= 1.06D-04  0.00D+00 EMaxC= 1.00D-01 BMatC= 5.97D-06 BMatP= 1.02D-05
 IDIUse=3 WtCom= 9.99D-01 WtEn= 1.06D-03
 Coeff-Com:  0.409D+00 0.591D+00
 Coeff-En:   0.000D+00 0.100D+01
 Coeff:      0.408D+00 0.592D+00
 Gap=     0.225 Goal=   None    Shift=    0.000
 RMSDP=2.57D-05 MaxDP=2.17D-03 DE=-1.91D-05 OVMax= 8.37D-04

 Cycle   3  Pass 1  IDiag  1:
 RMSU=  2.04D-05    CP:  1.00D+00  9.13D-01
 E= -633.324498804181     Delta-E=       -0.000004844431 Rises=F Damp=F
 DIIS: error= 8.22D-05 at cycle   3 NSaved=   3.
 NSaved= 3 IEnMin= 3 EnMin= -633.324498804181     IErMin= 3 ErrMin= 8.22D-05
 ErrMax= 8.22D-05  0.00D+00 EMaxC= 1.00D-01 BMatC= 1.46D-06 BMatP= 5.97D-06
 IDIUse=1 WtCom= 1.00D+00 WtEn= 0.00D+00
 Coeff-Com:  0.735D-01 0.315D+00 0.611D+00
 Coeff:      0.735D-01 0.315D+00 0.611D+00
 Gap=     0.225 Goal=   None    Shift=    0.000
 RMSDP=9.91D-06 MaxDP=5.32D-04 DE=-4.84D-06 OVMax= 4.63D-04

 Cycle   4  Pass 1  IDiag  1:
 RMSU=  9.10D-06    CP:  9.99D-01  9.13D-01  8.86D-01
 E= -633.324499955969     Delta-E=       -0.000001151788 Rises=F Damp=F
 DIIS: error= 1.72D-05 at cycle   4 NSaved=   4.
 NSaved= 4 IEnMin= 4 EnMin= -633.324499955969     IErMin= 4 ErrMin= 1.72D-05
 ErrMax= 1.72D-05  0.00D+00 EMaxC= 1.00D-01 BMatC= 1.17D-07 BMatP= 1.46D-06
 IDIUse=1 WtCom= 1.00D+00 WtEn= 0.00D+00
 Coeff-Com: -0.107D-01 0.593D-01 0.243D+00 0.709D+00
 Coeff:     -0.107D-01 0.593D-01 0.243D+00 0.709D+00
 Gap=     0.225 Goal=   None    Shift=    0.000
 RMSDP=4.69D-06 MaxDP=2.66D-04 DE=-1.15D-06 OVMax= 1.70D-04

 Cycle   5  Pass 1  IDiag  1:
 RMSU=  2.80D-06    CP:  1.00D+00  9.18D-01  1.04D+00  1.10D+00
 E= -633.324500060757     Delta-E=       -0.000000104788 Rises=F Damp=F
 DIIS: error= 5.42D-06 at cycle   5 NSaved=   5.
 NSaved= 5 IEnMin= 5 EnMin= -633.324500060757     IErMin= 5 ErrMin= 5.42D-06
 ErrMax= 5.42D-06  0.00D+00 EMaxC= 1.00D-01 BMatC= 2.02D-08 BMatP= 1.17D-07
 IDIUse=1 WtCom= 1.00D+00 WtEn= 0.00D+00
 Coeff-Com: -0.124D-01-0.173D-01 0.239D-01 0.316D+00 0.690D+00
 Coeff:     -0.124D-01-0.173D-01 0.239D-01 0.316D+00 0.690D+00
 Gap=     0.225 Goal=   None    Shift=    0.000
 RMSDP=1.33D-06 MaxDP=7.05D-05 DE=-1.05D-07 OVMax= 7.44D-05

 Cycle   6  Pass 1  IDiag  1:
 RMSU=  9.53D-07    CP:  1.00D+00  9.17D-01  1.07D+00  1.19D+00  1.07D+00
 E= -633.324500084480     Delta-E=       -0.000000023722 Rises=F Damp=F
 DIIS: error= 3.07D-06 at cycle   6 NSaved=   6.
 NSaved= 6 IEnMin= 6 EnMin= -633.324500084480     IErMin= 6 ErrMin= 3.07D-06
 ErrMax= 3.07D-06  0.00D+00 EMaxC= 1.00D-01 BMatC= 1.62D-09 BMatP= 2.02D-08
 IDIUse=1 WtCom= 1.00D+00 WtEn= 0.00D+00
 Coeff-Com: -0.205D-02-0.116D-01-0.129D-01 0.126D-01 0.199D+00 0.815D+00
 Coeff:     -0.205D-02-0.116D-01-0.129D-01 0.126D-01 0.199D+00 0.815D+00
 Gap=     0.225 Goal=   None    Shift=    0.000
 RMSDP=8.16D-07 MaxDP=5.83D-05 DE=-2.37D-08 OVMax= 5.02D-05

 Cycle   7  Pass 1  IDiag  1:
 RMSU=  3.33D-07    CP:  1.00D+00  9.15D-01  1.08D+00  1.23D+00  1.21D+00
                    CP:  1.29D+00
 E= -633.324500087546     Delta-E=       -0.000000003067 Rises=F Damp=F
 DIIS: error= 1.84D-06 at cycle   7 NSaved=   7.
 NSaved= 7 IEnMin= 7 EnMin= -633.324500087546     IErMin= 7 ErrMin= 1.84D-06
 ErrMax= 1.84D-06  0.00D+00 EMaxC= 1.00D-01 BMatC= 6.70D-10 BMatP= 1.62D-09
 IDIUse=1 WtCom= 1.00D+00 WtEn= 0.00D+00
 Coeff-Com:  0.963D-03-0.381D-02-0.803D-02-0.445D-01-0.174D-01 0.431D+00
 Coeff-Com:  0.642D+00
 Coeff:      0.963D-03-0.381D-02-0.803D-02-0.445D-01-0.174D-01 0.431D+00
 Coeff:      0.642D+00
 Gap=     0.225 Goal=   None    Shift=    0.000
 RMSDP=2.62D-07 MaxDP=1.63D-05 DE=-3.07D-09 OVMax= 2.30D-05

 Cycle   8  Pass 1  IDiag  1:
 RMSU=  1.30D-07    CP:  1.00D+00  9.15D-01  1.09D+00  1.24D+00  1.25D+00
                    CP:  1.43D+00  1.05D+00
 E= -633.324500088560     Delta-E=       -0.000000001013 Rises=F Damp=F
 DIIS: error= 7.76D-07 at cycle   8 NSaved=   8.
 NSaved= 8 IEnMin= 8 EnMin= -633.324500088560     IErMin= 8 ErrMin= 7.76D-07
 ErrMax= 7.76D-07  0.00D+00 EMaxC= 1.00D-01 BMatC= 6.95D-11 BMatP= 6.70D-10
 IDIUse=1 WtCom= 1.00D+00 WtEn= 0.00D+00
 Coeff-Com:  0.748D-03 0.293D-03 0.810D-03-0.167D-01-0.509D-01-0.235D-01
 Coeff-Com:  0.201D+00 0.888D+00
 Coeff:      0.748D-03 0.293D-03 0.810D-03-0.167D-01-0.509D-01-0.235D-01
 Coeff:      0.201D+00 0.888D+00
 Gap=     0.225 Goal=   None    Shift=    0.000
 RMSDP=1.79D-07 MaxDP=9.51D-06 DE=-1.01D-09 OVMax= 1.48D-05

 Cycle   9  Pass 1  IDiag  1:
 RMSU=  6.90D-08    CP:  1.00D+00  9.14D-01  1.09D+00  1.24D+00  1.27D+00
                    CP:  1.54D+00  1.27D+00  1.19D+00
 E= -633.324500088759     Delta-E=       -0.000000000200 Rises=F Damp=F
 DIIS: error= 3.26D-07 at cycle   9 NSaved=   9.
 NSaved= 9 IEnMin= 9 EnMin= -633.324500088759     IErMin= 9 ErrMin= 3.26D-07
 ErrMax= 3.26D-07  0.00D+00 EMaxC= 1.00D-01 BMatC= 1.01D-11 BMatP= 6.95D-11
 IDIUse=1 WtCom= 1.00D+00 WtEn= 0.00D+00
 Coeff-Com:  0.130D-03 0.536D-03 0.163D-02 0.166D-02-0.160D-01-0.772D-01
 Coeff-Com: -0.275D-01 0.316D+00 0.801D+00
 Coeff:      0.130D-03 0.536D-03 0.163D-02 0.166D-02-0.160D-01-0.772D-01
 Coeff:     -0.275D-01 0.316D+00 0.801D+00
 Gap=     0.225 Goal=   None    Shift=    0.000
 RMSDP=5.55D-08 MaxDP=2.31D-06 DE=-2.00D-10 OVMax= 5.60D-06

 Cycle  10  Pass 1  IDiag  1:
 RMSU=  2.34D-08    CP:  1.00D+00  9.14D-01  1.09D+00  1.24D+00  1.27D+00
                    CP:  1.58D+00  1.35D+00  1.31D+00  1.22D+00
 E= -633.324500088789     Delta-E=       -0.000000000030 Rises=F Damp=F
 DIIS: error= 1.17D-07 at cycle  10 NSaved=  10.
 NSaved=10 IEnMin=10 EnMin= -633.324500088789     IErMin=10 ErrMin= 1.17D-07
 ErrMax= 1.17D-07  0.00D+00 EMaxC= 1.00D-01 BMatC= 1.89D-12 BMatP= 1.01D-11
 IDIUse=1 WtCom= 1.00D+00 WtEn= 0.00D+00
 Coeff-Com: -0.554D-04 0.213D-03 0.438D-03 0.331D-02 0.761D-03-0.291D-01
 Coeff-Com: -0.388D-01-0.409D-02 0.306D+00 0.761D+00
 Coeff:     -0.554D-04 0.213D-03 0.438D-03 0.331D-02 0.761D-03-0.291D-01
 Coeff:     -0.388D-01-0.409D-02 0.306D+00 0.761D+00
 Gap=     0.225 Goal=   None    Shift=    0.000
 RMSDP=2.59D-08 MaxDP=1.38D-06 DE=-2.98D-11 OVMax= 2.09D-06

 Cycle  11  Pass 1  IDiag  1:
 RMSU=  9.98D-09    CP:  1.00D+00  9.14D-01  1.09D+00  1.24D+00  1.27D+00
                    CP:  1.59D+00  1.38D+00  1.35D+00  1.43D+00  1.19D+00
 E= -633.324500088793     Delta-E=       -0.000000000004 Rises=F Damp=F
 DIIS: error= 4.94D-08 at cycle  11 NSaved=  11.
 NSaved=11 IEnMin=11 EnMin= -633.324500088793     IErMin=11 ErrMin= 4.94D-08
 ErrMax= 4.94D-08  0.00D+00 EMaxC= 1.00D-01 BMatC= 6.29D-13 BMatP= 1.89D-12
 IDIUse=1 WtCom= 1.00D+00 WtEn= 0.00D+00
 Coeff-Com: -0.503D-04 0.411D-04-0.136D-03 0.143D-02 0.357D-02 0.989D-03
 Coeff-Com: -0.123D-01-0.622D-01-0.402D-02 0.407D+00 0.666D+00
 Coeff:     -0.503D-04 0.411D-04-0.136D-03 0.143D-02 0.357D-02 0.989D-03
 Coeff:     -0.123D-01-0.622D-01-0.402D-02 0.407D+00 0.666D+00
 Gap=     0.225 Goal=   None    Shift=    0.000
 RMSDP=9.79D-09 MaxDP=4.56D-07 DE=-3.98D-12 OVMax= 7.65D-07

 Error on total polarization charges =  0.00926
 SCF Done:  E(RCAM-B3LYP) =  -633.324500089     A.U. after   11 cycles
            NFock= 11  Conv=0.98D-08     -V/T= 2.0041
 KE= 6.307103959824D+02 PE=-3.276294625805D+03 EE= 1.112105926535D+03
 Leave Link  502 at Fri Jan 23 22:41:33 2026, MaxMem=  2147483648 cpu:             691.0 elap:              44.2
 (Enter /data/home/wyx/g16/l601.exe)
 Copying SCF densities to generalized density rwf, IOpCl= 0 IROHF=0.

 **********************************************************************

            Population analysis using the SCF density.

 **********************************************************************

 Orbital symmetries:
       Occupied  (A) (A) (A) (A) (A) (A) (A) (A) (A) (A) (A) (A)
                 (A) (A) (A) (A) (A) (A) (A) (A) (A) (A) (A) (A)
                 (A) (A) (A) (A) (A) (A) (A) (A) (A) (A) (A) (A)
                 (A) (A) (A) (A) (A) (A) (A) (A) (A) (A) (A) (A)
                 (A) (A) (A) (A)
       Virtual   (A) (A) (A) (A) (A) (A) (A) (A) (A) (A) (A) (A)
                 (A) (A) (A) (A) (A) (A) (A) (A) (A) (A) (A) (A)
                 (A) (A) (A) (A) (A) (A) (A) (A) (A) (A) (A) (A)
                 (A) (A) (A) (A) (A) (A) (A) (A) (A) (A) (A) (A)
                 (A) (A) (A) (A) (A) (A) (A) (A) (A) (A) (A) (A)
                 (A) (A) (A) (A) (A) (A) (A) (A) (A) (A) (A) (A)
                 (A) (A) (A) (A) (A) (A) (A) (A) (A) (A) (A) (A)
                 (A) (A) (A) (A) (A) (A) (A) (A) (A) (A) (A) (A)
                 (A) (A) (A) (A) (A) (A) (A) (A) (A) (A) (A) (A)
                 (A) (A) (A) (A) (A) (A) (A) (A) (A) (A) (A) (A)
                 (A) (A) (A) (A) (A) (A) (A) (A) (A) (A) (A) (A)
                 (A) (A) (A) (A) (A) (A) (A) (A) (A) (A) (A) (A)
                 (A) (A) (A) (A) (A) (A) (A) (A) (A) (A) (A) (A)
                 (A) (A) (A) (A) (A) (A) (A) (A) (A) (A) (A) (A)
                 (A) (A) (A) (A) (A) (A) (A) (A) (A) (A) (A) (A)
                 (A) (A) (A) (A) (A) (A) (A) (A) (A) (A) (A) (A)
                 (A) (A) (A) (A) (A) (A) (A) (A) (A) (A) (A) (A)
                 (A) (A) (A) (A) (A) (A) (A) (A) (A) (A) (A) (A)
                 (A) (A) (A) (A) (A) (A) (A) (A) (A) (A) (A) (A)
                 (A) (A) (A) (A) (A) (A) (A) (A) (A) (A) (A) (A)
                 (A) (A) (A) (A) (A) (A) (A) (A) (A) (A) (A) (A)
                 (A) (A) (A) (A) (A) (A) (A) (A) (A) (A) (A) (A)
                 (A) (A) (A) (A) (A) (A) (A) (A) (A) (A) (A) (A)
                 (A) (A) (A) (A) (A) (A) (A) (A) (A) (A) (A) (A)
                 (A) (A) (A) (A) (A) (A) (A) (A) (A) (A) (A) (A)
                 (A) (A) (A) (A)
 The electronic state is 1-A.
 Alpha  occ. eigenvalues --  -19.17808 -19.16937 -14.44417 -10.33359 -10.32719
 Alpha  occ. eigenvalues --  -10.32480 -10.31796 -10.26112 -10.25179 -10.24844
 Alpha  occ. eigenvalues --  -10.24457 -10.24335 -10.24329 -10.23479  -1.11617
 Alpha  occ. eigenvalues --   -1.11038  -1.08064  -0.91336  -0.90316  -0.83910
 Alpha  occ. eigenvalues --   -0.82607  -0.81697  -0.78491  -0.73788  -0.71788
 Alpha  occ. eigenvalues --   -0.68595  -0.61548  -0.58234  -0.56917  -0.55092
 Alpha  occ. eigenvalues --   -0.54533  -0.53967  -0.52522  -0.51827  -0.50828
 Alpha  occ. eigenvalues --   -0.49800  -0.49487  -0.49226  -0.48643  -0.47996
 Alpha  occ. eigenvalues --   -0.47051  -0.45229  -0.45124  -0.43695  -0.43125
 Alpha  occ. eigenvalues --   -0.42224  -0.42067  -0.41632  -0.32611  -0.32153
 Alpha  occ. eigenvalues --   -0.31074  -0.25305
 Alpha virt. eigenvalues --   -0.02847   0.02643   0.06327   0.08214   0.08433
 Alpha virt. eigenvalues --    0.09861   0.10814   0.11789   0.12599   0.13499
 Alpha virt. eigenvalues --    0.14025   0.14842   0.15666   0.16337   0.16958
 Alpha virt. eigenvalues --    0.17604   0.17817   0.18070   0.18322   0.19264
 Alpha virt. eigenvalues --    0.19938   0.22149   0.22917   0.23590   0.23832
 Alpha virt. eigenvalues --    0.23884   0.24822   0.25694   0.26256   0.26711
 Alpha virt. eigenvalues --    0.27236   0.27974   0.28648   0.29275   0.30209
 Alpha virt. eigenvalues --    0.31767   0.32033   0.32498   0.33573   0.34525
 Alpha virt. eigenvalues --    0.34966   0.36046   0.36777   0.38160   0.38590
 Alpha virt. eigenvalues --    0.39838   0.41165   0.41543   0.42077   0.42608
 Alpha virt. eigenvalues --    0.44084   0.44753   0.45585   0.46213   0.46442
 Alpha virt. eigenvalues --    0.47313   0.47832   0.48158   0.48366   0.49137
 Alpha virt. eigenvalues --    0.49572   0.50683   0.51137   0.51518   0.51688
 Alpha virt. eigenvalues --    0.52811   0.53013   0.53432   0.53935   0.54297
 Alpha virt. eigenvalues --    0.54548   0.55561   0.56125   0.56756   0.58394
 Alpha virt. eigenvalues --    0.58550   0.59689   0.61095   0.61385   0.63047
 Alpha virt. eigenvalues --    0.63897   0.65569   0.66548   0.66722   0.67907
 Alpha virt. eigenvalues --    0.68694   0.69835   0.71173   0.71895   0.72475
 Alpha virt. eigenvalues --    0.73272   0.74334   0.74939   0.75973   0.77873
 Alpha virt. eigenvalues --    0.79017   0.80113   0.83016   0.85988   0.86975
 Alpha virt. eigenvalues --    0.90533   0.94721   1.01567   1.03423   1.22946
 Alpha virt. eigenvalues --    1.24891   1.27162   1.28288   1.29475   1.31043
 Alpha virt. eigenvalues --    1.32453   1.32930   1.34267   1.35027   1.36215
 Alpha virt. eigenvalues --    1.36615   1.37718   1.38446   1.38994   1.39855
 Alpha virt. eigenvalues --    1.39982   1.40676   1.40805   1.41380   1.41919
 Alpha virt. eigenvalues --    1.43597   1.43862   1.44359   1.45333   1.47438
 Alpha virt. eigenvalues --    1.48162   1.49657   1.50002   1.50413   1.50989
 Alpha virt. eigenvalues --    1.51342   1.52685   1.52764   1.55163   1.58239
 Alpha virt. eigenvalues --    1.59001   1.60588   1.60859   1.61507   1.62612
 Alpha virt. eigenvalues --    1.62697   1.63350   1.64162   1.64554   1.65978
 Alpha virt. eigenvalues --    1.66693   1.67167   1.67629   1.68147   1.68562
 Alpha virt. eigenvalues --    1.69051   1.69957   1.70185   1.71358   1.72444
 Alpha virt. eigenvalues --    1.74075   1.75164   1.76105   1.76708   1.78756
 Alpha virt. eigenvalues --    1.81211   1.82990   1.84103   1.85961   1.86636
 Alpha virt. eigenvalues --    1.86794   1.88073   1.88688   1.88880   1.90490
 Alpha virt. eigenvalues --    1.91288   1.94667   1.95215   1.99057   1.99846
 Alpha virt. eigenvalues --    2.01476   2.03966   2.05429   2.06901   2.09728
 Alpha virt. eigenvalues --    2.10867   2.12327   2.15449   2.17533   2.19802
 Alpha virt. eigenvalues --    2.20349   2.21333   2.22101   2.23084   2.26388
 Alpha virt. eigenvalues --    2.27339   2.27596   2.29406   2.31430   2.32417
 Alpha virt. eigenvalues --    2.33955   2.34425   2.36964   2.38014   2.38843
 Alpha virt. eigenvalues --    2.39689   2.40410   2.41643   2.43119   2.45141
 Alpha virt. eigenvalues --    2.46151   2.48021   2.49859   2.50524   2.51379
 Alpha virt. eigenvalues --    2.52365   2.54239   2.54997   2.56694   2.57849
 Alpha virt. eigenvalues --    2.58933   2.60865   2.61802   2.62719   2.63372
 Alpha virt. eigenvalues --    2.64747   2.65895   2.66830   2.67450   2.68644
 Alpha virt. eigenvalues --    2.71934   2.72196   2.73560   2.74562   2.75496
 Alpha virt. eigenvalues --    2.76022   2.76933   2.77396   2.78134   2.79274
 Alpha virt. eigenvalues --    2.80766   2.82061   2.83277   2.84156   2.84619
 Alpha virt. eigenvalues --    2.85670   2.86532   2.88720   2.89648   2.91999
 Alpha virt. eigenvalues --    2.97610   2.99496   3.00900   3.06208   3.10962
 Alpha virt. eigenvalues --    3.12411   3.15248   3.17473   3.18750   3.21493
 Alpha virt. eigenvalues --    3.21816   3.23880   3.24641   3.25955   3.27128
 Alpha virt. eigenvalues --    3.28030   3.30173   3.33224   3.34639   3.36635
 Alpha virt. eigenvalues --    3.37824   3.38868   3.39815   3.40186   3.42107
 Alpha virt. eigenvalues --    3.42346   3.44495   3.45377   3.47756   3.48533
 Alpha virt. eigenvalues --    3.49650   3.49947   3.55588   3.58652   3.60199
 Alpha virt. eigenvalues --    3.61065   3.91031   4.00663   4.33754   4.36629
 Alpha virt. eigenvalues --   21.66573  21.80678  22.08410  22.10790  22.11907
 Alpha virt. eigenvalues --   22.15122  22.15340  22.18927  22.19896  22.25035
 Alpha virt. eigenvalues --   22.28705  31.92133  43.63764  43.66581
          Condensed to atoms (all electrons):
               1          2          3          4          5          6
     1  O    7.933025   0.000000  -0.000201   0.000019   0.018086   0.011412
     2  O    0.000000   7.977022   0.000419   0.000020  -0.197012   0.001210
     3  N   -0.000201   0.000419   6.373471   0.370585  -0.117797   0.328788
     4  H    0.000019   0.000020   0.370585   0.410931   0.016569  -0.046449
     5  C    0.018086  -0.197012  -0.117797   0.016569   7.080905  -0.080723
     6  C    0.011412   0.001210   0.328788  -0.046449  -0.080723   5.579909
     7  C   -0.000196  -0.044530   0.390127  -0.037306   0.447930  -0.114488
     8  C   -0.000544   0.707942   0.004358  -0.000814  -0.308707   0.031395
     9  C   -0.012344   0.023745   0.012717   0.000046  -0.633457  -0.060847
    10  H    0.010891  -0.000012  -0.001367   0.000020  -0.119261   0.028328
    11  H    0.006177   0.000126   0.003717   0.000030  -0.041982  -0.019279
    12  C   -0.228544  -0.002845  -0.087330   0.014796   0.188601  -0.109543
    13  C    0.718267  -0.000020   0.001388   0.000506   0.079827   0.142587
    14  C   -0.000007  -0.006319  -0.033946  -0.010290  -0.084795   0.011454
    15  H   -0.000000   0.004248   0.004641   0.001925   0.019680   0.006452
    16  H    0.000000   0.002147   0.000173   0.000791  -0.006463  -0.001105
    17  H   -0.000000   0.002722  -0.002437   0.000927  -0.006855  -0.001598
    18  C    0.000146  -0.103512  -0.000541   0.000020  -0.262373   0.000291
    19  H   -0.000002   0.008177   0.000004  -0.000001   0.024180   0.000023
    20  H    0.000123   0.004017   0.000119   0.000001   0.045436  -0.001223
    21  H    0.000003   0.000873   0.000013  -0.000001   0.002846   0.000218
    22  C   -0.106628   0.000000  -0.000134   0.000120   0.004156  -0.017636
    23  H    0.001380   0.000000   0.000000  -0.000013  -0.000028   0.009535
    24  H    0.004941  -0.000000   0.000089  -0.000055  -0.000664  -0.028909
    25  H    0.007078   0.000000   0.000026  -0.000003  -0.000152  -0.001013
    26  C    0.000823   0.000008  -0.027038  -0.006491   0.000562   0.183633
    27  H   -0.000051  -0.000000  -0.002480   0.000470   0.000395  -0.034480
    28  H   -0.000240  -0.000000   0.001714   0.000789  -0.000004  -0.047296
    29  H    0.000024   0.000000   0.001772   0.001630  -0.000368  -0.049207
               7          8          9         10         11         12
     1  O   -0.000196  -0.000544  -0.012344   0.010891   0.006177  -0.228544
     2  O   -0.044530   0.707942   0.023745  -0.000012   0.000126  -0.002845
     3  N    0.390127   0.004358   0.012717  -0.001367   0.003717  -0.087330
     4  H   -0.037306  -0.000814   0.000046   0.000020   0.000030   0.014796
     5  C    0.447930  -0.308707  -0.633457  -0.119261  -0.041982   0.188601
     6  C   -0.114488   0.031395  -0.060847   0.028328  -0.019279  -0.109543
     7  C    5.398891  -0.221579  -0.200032   0.017410  -0.006210   0.015100
     8  C   -0.221579   5.390361   0.164662  -0.009592  -0.002870  -0.045198
     9  C   -0.200032   0.164662   6.370318   0.540875   0.404566  -0.092713
    10  H    0.017410  -0.009592   0.540875   0.522931  -0.043449  -0.110307
    11  H   -0.006210  -0.002870   0.404566  -0.043449   0.564610  -0.012547
    12  C    0.015100  -0.045198  -0.092713  -0.110307  -0.012547   7.348337
    13  C    0.016984  -0.008332  -0.252908  -0.001284  -0.004564  -0.464359
    14  C    0.280581  -0.033116   0.007999   0.000547  -0.001073  -0.002020
    15  H   -0.082644   0.005500   0.000487  -0.000004   0.000051  -0.001464
    16  H   -0.025717  -0.007064  -0.000429  -0.000056   0.000188   0.000091
    17  H   -0.020932  -0.001909   0.000834   0.000058  -0.000064   0.000539
    18  C   -0.000309   0.324551   0.002806   0.007824  -0.011535  -0.002390
    19  H    0.000328  -0.053042  -0.001401   0.000607   0.000043  -0.000171
    20  H    0.003152  -0.069230  -0.009820  -0.006626   0.002747   0.007145
    21  H   -0.000079  -0.024020  -0.009216  -0.001334   0.000788  -0.002867
    22  C    0.000112  -0.000076   0.007355  -0.000251   0.002543  -0.261203
    23  H   -0.000002   0.000002  -0.002205  -0.000125   0.000169  -0.010769
    24  H   -0.000015   0.000002   0.003131   0.000030  -0.000180   0.066502
    25  H    0.000009   0.000003   0.000263  -0.000079  -0.000075   0.021228
    26  C    0.002958   0.000726   0.022095   0.000094  -0.000739  -0.082010
    27  H   -0.000814  -0.000012  -0.000347   0.000042  -0.000015  -0.018161
    28  H   -0.000727   0.000002  -0.000317   0.000010  -0.000106  -0.006979
    29  H    0.003226  -0.000006  -0.000561  -0.000013   0.000093   0.022579
              13         14         15         16         17         18
     1  O    0.718267  -0.000007  -0.000000   0.000000  -0.000000   0.000146
     2  O   -0.000020  -0.006319   0.004248   0.002147   0.002722  -0.103512
     3  N    0.001388  -0.033946   0.004641   0.000173  -0.002437  -0.000541
     4  H    0.000506  -0.010290   0.001925   0.000791   0.000927   0.000020
     5  C    0.079827  -0.084795   0.019680  -0.006463  -0.006855  -0.262373
     6  C    0.142587   0.011454   0.006452  -0.001105  -0.001598   0.000291
     7  C    0.016984   0.280581  -0.082644  -0.025717  -0.020932  -0.000309
     8  C   -0.008332  -0.033116   0.005500  -0.007064  -0.001909   0.324551
     9  C   -0.252908   0.007999   0.000487  -0.000429   0.000834   0.002806
    10  H   -0.001284   0.000547  -0.000004  -0.000056   0.000058   0.007824
    11  H   -0.004564  -0.001073   0.000051   0.000188  -0.000064  -0.011535
    12  C   -0.464359  -0.002020  -0.001464   0.000091   0.000539  -0.002390
    13  C    5.537601   0.000068  -0.000036  -0.000004  -0.000009   0.001049
    14  C    0.000068   5.042696   0.389833   0.418154   0.407915   0.001399
    15  H   -0.000036   0.389833   0.579857  -0.027732  -0.026109   0.000254
    16  H   -0.000004   0.418154  -0.027732   0.509878  -0.026488  -0.000187
    17  H   -0.000009   0.407915  -0.026109  -0.026488   0.508826   0.000045
    18  C    0.001049   0.001399   0.000254  -0.000187   0.000045   5.329795
    19  H   -0.000012   0.000047  -0.000005   0.000036  -0.000031   0.394773
    20  H    0.000743   0.000066  -0.000015  -0.000033   0.000002   0.380696
    21  H   -0.000128  -0.000235  -0.000005   0.000016  -0.000008   0.398336
    22  C    0.286787  -0.000017   0.000002  -0.000000   0.000000   0.000032
    23  H   -0.023219  -0.000001   0.000000  -0.000000   0.000000  -0.000002
    24  H   -0.096742   0.000002   0.000000   0.000000   0.000000   0.000002
    25  H   -0.037635   0.000000   0.000000   0.000000  -0.000000  -0.000001
    26  C   -0.055238   0.000882   0.000195   0.000036  -0.000113   0.000014
    27  H    0.006589  -0.000111  -0.000002   0.000004  -0.000007  -0.000000
    28  H   -0.003297   0.000075  -0.000010  -0.000002   0.000001  -0.000000
    29  H   -0.001037  -0.000205   0.000112  -0.000003   0.000001   0.000000
              19         20         21         22         23         24
     1  O   -0.000002   0.000123   0.000003  -0.106628   0.001380   0.004941
     2  O    0.008177   0.004017   0.000873   0.000000   0.000000  -0.000000
     3  N    0.000004   0.000119   0.000013  -0.000134   0.000000   0.000089
     4  H   -0.000001   0.000001  -0.000001   0.000120  -0.000013  -0.000055
     5  C    0.024180   0.045436   0.002846   0.004156  -0.000028  -0.000664
     6  C    0.000023  -0.001223   0.000218  -0.017636   0.009535  -0.028909
     7  C    0.000328   0.003152  -0.000079   0.000112  -0.000002  -0.000015
     8  C   -0.053042  -0.069230  -0.024020  -0.000076   0.000002   0.000002
     9  C   -0.001401  -0.009820  -0.009216   0.007355  -0.002205   0.003131
    10  H    0.000607  -0.006626  -0.001334  -0.000251  -0.000125   0.000030
    11  H    0.000043   0.002747   0.000788   0.002543   0.000169  -0.000180
    12  C   -0.000171   0.007145  -0.002867  -0.261203  -0.010769   0.066502
    13  C   -0.000012   0.000743  -0.000128   0.286787  -0.023219  -0.096742
    14  C    0.000047   0.000066  -0.000235  -0.000017  -0.000001   0.000002
    15  H   -0.000005  -0.000015  -0.000005   0.000002   0.000000   0.000000
    16  H    0.000036  -0.000033   0.000016  -0.000000  -0.000000   0.000000
    17  H   -0.000031   0.000002  -0.000008   0.000000   0.000000   0.000000
    18  C    0.394773   0.380696   0.398336   0.000032  -0.000002   0.000002
    19  H    0.508255  -0.024184  -0.010164  -0.000000   0.000000   0.000000
    20  H   -0.024184   0.537139  -0.024174   0.000026  -0.000000  -0.000000
    21  H   -0.010164  -0.024174   0.495893  -0.000012   0.000000   0.000000
    22  C   -0.000000   0.000026  -0.000012   5.429822   0.401077   0.396214
    23  H    0.000000  -0.000000   0.000000   0.401077   0.496099  -0.027704
    24  H    0.000000  -0.000000   0.000000   0.396214  -0.027704   0.546753
    25  H   -0.000000  -0.000000   0.000000   0.383543  -0.007990  -0.022318
    26  C    0.000000  -0.000017   0.000004  -0.031405  -0.011978   0.016586
    27  H    0.000000  -0.000000  -0.000000  -0.010858   0.000984  -0.001727
    28  H   -0.000000  -0.000000   0.000000   0.005786  -0.000208  -0.008285
    29  H    0.000000   0.000000  -0.000000   0.001998   0.000190   0.000644
              25         26         27         28         29
     1  O    0.007078   0.000823  -0.000051  -0.000240   0.000024
     2  O    0.000000   0.000008  -0.000000  -0.000000   0.000000
     3  N    0.000026  -0.027038  -0.002480   0.001714   0.001772
     4  H   -0.000003  -0.006491   0.000470   0.000789   0.001630
     5  C   -0.000152   0.000562   0.000395  -0.000004  -0.000368
     6  C   -0.001013   0.183633  -0.034480  -0.047296  -0.049207
     7  C    0.000009   0.002958  -0.000814  -0.000727   0.003226
     8  C    0.000003   0.000726  -0.000012   0.000002  -0.000006
     9  C    0.000263   0.022095  -0.000347  -0.000317  -0.000561
    10  H   -0.000079   0.000094   0.000042   0.000010  -0.000013
    11  H   -0.000075  -0.000739  -0.000015  -0.000106   0.000093
    12  C    0.021228  -0.082010  -0.018161  -0.006979   0.022579
    13  C   -0.037635  -0.055238   0.006589  -0.003297  -0.001037
    14  C    0.000000   0.000882  -0.000111   0.000075  -0.000205
    15  H    0.000000   0.000195  -0.000002  -0.000010   0.000112
    16  H    0.000000   0.000036   0.000004  -0.000002  -0.000003
    17  H   -0.000000  -0.000113  -0.000007   0.000001   0.000001
    18  C   -0.000001   0.000014  -0.000000  -0.000000   0.000000
    19  H   -0.000000   0.000000   0.000000  -0.000000   0.000000
    20  H   -0.000000  -0.000017  -0.000000  -0.000000   0.000000
    21  H    0.000000   0.000004  -0.000000   0.000000  -0.000000
    22  C    0.383543  -0.031405  -0.010858   0.005786   0.001998
    23  H   -0.007990  -0.011978   0.000984  -0.000208   0.000190
    24  H   -0.022318   0.016586  -0.001727  -0.008285   0.000644
    25  H    0.494019   0.001891   0.000120   0.000677  -0.000038
    26  C    0.001891   5.250539   0.428045   0.429985   0.389819
    27  H    0.000120   0.428045   0.483176  -0.027506  -0.017734
    28  H    0.000677   0.429985  -0.027506   0.509431  -0.025621
    29  H   -0.000038   0.389819  -0.017734  -0.025621   0.517511
 Mulliken charges:
               1
     1  O   -0.363639
     2  O   -0.378426
     3  N   -0.220850
     4  H    0.281227
     5  C   -0.068534
     6  C    0.278560
     7  C    0.178773
     8  C    0.156605
     9  C   -0.285303
    10  H    0.164093
    11  H    0.158843
    12  C   -0.143499
    13  C    0.156428
    14  C   -0.389584
    15  H    0.124788
    16  H    0.163769
    17  H    0.164690
    18  C   -0.461183
    19  H    0.152542
    20  H    0.153910
    21  H    0.173254
    22  C   -0.491354
    23  H    0.174808
    24  H    0.151703
    25  H    0.160445
    26  C   -0.513867
    27  H    0.194480
    28  H    0.172129
    29  H    0.155193
 Sum of Mulliken charges =  -0.00000
 Mulliken charges with hydrogens summed into heavy atoms:
               1
     1  O   -0.363639
     2  O   -0.378426
     3  N    0.060377
     5  C   -0.068534
     6  C    0.278560
     7  C    0.178773
     8  C    0.156605
     9  C    0.037633
    12  C   -0.143499
    13  C    0.156428
    14  C    0.063662
    18  C    0.018523
    22  C   -0.004397
    26  C    0.007935
 Electronic spatial extent (au):  <R**2>=           3197.3152
 Charge=             -0.0000 electrons
 Dipole moment (field-independent basis, Debye):
    X=              3.9145    Y=              7.3933    Z=             -0.0245  Tot=              8.3657
 Quadrupole moment (field-independent basis, Debye-Ang):
   XX=            -98.6331   YY=            -78.3145   ZZ=            -84.8850
   XY=             12.2921   XZ=              4.4611   YZ=             -2.0104
 Traceless Quadrupole moment (field-independent basis, Debye-Ang):
   XX=            -11.3556   YY=              8.9630   ZZ=              2.3926
   XY=             12.2921   XZ=              4.4611   YZ=             -2.0104
 Octapole moment (field-independent basis, Debye-Ang**2):
  XXX=            108.1716  YYY=             63.5556  ZZZ=              1.4053  XYY=            -34.6575
  XXY=             31.2632  XXZ=             -6.5958  XZZ=              0.9452  YZZ=             -1.3847
  YYZ=              4.1114  XYZ=             -5.2092
 Hexadecapole moment (field-independent basis, Debye-Ang**3):
 XXXX=          -3062.2878 YYYY=          -1286.6778 ZZZZ=           -146.4542 XXXY=             33.2009
 XXXZ=             49.6551 YYYX=             87.2683 YYYZ=            -20.1487 ZZZX=             -3.5001
 ZZZY=              3.4067 XXYY=           -692.2675 XXZZ=           -481.7281 YYZZ=           -244.1396
 XXYZ=             -8.9583 YYXZ=              8.7373 ZZXY=             -0.5655
 N-N= 9.001538031984D+02 E-N=-3.276294621573D+03  KE= 6.307103959824D+02
 No NMR shielding tensors so no spin-rotation constants.
 Leave Link  601 at Fri Jan 23 22:41:34 2026, MaxMem=  2147483648 cpu:               1.8 elap:               0.1
 (Enter /data/home/wyx/g16/l9999.exe)
 1\1\GINC-CN012\SP\RCAM-B3LYP\TZVP\C11H15N1O2\WYX\23-Jan-2026\0\\#p CAM
 -B3LYP TZVP em=gd3bj scrf=(Solvent=TetraHydroFuran,NonEquilibrium=Read
 ) Geom=Check Guess=Read\\Title Card Required\\0,1\O,0,2.838465,-1.5703
 58,0.07902\O,0,-3.4266,-1.638653,-0.062623\N,0,-0.653994,1.515412,-0.2
 50937\H,0,-0.964881,2.474722,-0.302122\C,0,-1.244676,-0.760561,-0.2091
 57\C,0,0.686978,1.32176,-0.053511\C,0,-1.62836,0.566784,-0.257947\C,0,
 -2.216337,-1.839589,-0.152746\C,0,0.203507,-1.092919,-0.249185\H,0,0.4
 28903,-1.913571,0.436692\H,0,0.461299,-1.528391,-1.229056\C,0,1.148878
 ,0.024885,0.021429\C,0,2.516298,-0.398923,0.29022\C,0,-3.016382,1.0991
 18,-0.330496\H,0,-3.016773,2.174666,-0.498146\H,0,-3.579167,0.623799,-
 1.126949\H,0,-3.561889,0.896921,0.587044\C,0,-1.717988,-3.258967,-0.18
 7447\H,0,-2.542786,-3.926465,-0.409669\H,0,-0.930823,-3.41539,-0.91874
 3\H,0,-1.310522,-3.54344,0.781541\C,0,3.553956,0.533416,0.866513\H,0,4
 .063063,1.078634,0.069273\H,0,3.139936,1.257691,1.563139\H,0,4.296261,
 -0.075783,1.377367\C,0,1.46814,2.591157,0.028066\H,0,1.645233,2.895303
 ,1.059564\H,0,2.430542,2.505552,-0.462774\H,0,0.929718,3.403189,-0.458
 361\\Version=ES64L-G16RevA.03\State=1-A\HF=-633.3245001\RMSD=9.793e-09
 \Dipole=0.4747097,3.2568955,0.0003338\Quadrupole=-13.1462639,10.735287
 8,2.4109761,2.3639979,1.9042439,-0.1461688\PG=C01 [X(C11H15N1O2)]\\@


 THE REASON MAN'S BEST FRIEND IS A DOG IS BECAUSE
 HE WAGS HIS TAIL INSTEAD OF HIS TONGUE.
 Job cpu time:       0 days  0 hours 11 minutes 46.9 seconds.
 Elapsed time:       0 days  0 hours  0 minutes 45.5 seconds.
 File lengths (MBytes):  RWF=    346 Int=      0 D2E=      0 Chk=     67 Scr=      1
 Normal termination of Gaussian 16 at Fri Jan 23 22:41:34 2026.
