 Entering Gaussian System, Link 0=g16
 Input=DDL-S1-cLR-14.gjf
 Output=DDL-S1-cLR-14.log
 Initial command:
 /data/home/wyx/g16/l1.exe "/scr/tmp/wyx/13106/Gau-1981476.inp" -scrdir="/scr/tmp/wyx/13106/"
 Entering Link 1 = /data/home/wyx/g16/l1.exe PID=   1981477.
  
 Copyright (c) 1988,1990,1992,1993,1995,1998,2003,2009,2016,
            Gaussian, Inc.  All Rights Reserved.
  
 This is part of the Gaussian(R) 16 program.  It is based on
 the Gaussian(R) 09 system (copyright 2009, Gaussian, Inc.),
 the Gaussian(R) 03 system (copyright 2003, Gaussian, Inc.),
 the Gaussian(R) 98 system (copyright 1998, Gaussian, Inc.),
 the Gaussian(R) 94 system (copyright 1995, Gaussian, Inc.),
 the Gaussian 92(TM) system (copyright 1992, Gaussian, Inc.),
 the Gaussian 90(TM) system (copyright 1990, Gaussian, Inc.),
 the Gaussian 88(TM) system (copyright 1988, Gaussian, Inc.),
 the Gaussian 86(TM) system (copyright 1986, Carnegie Mellon
 University), and the Gaussian 82(TM) system (copyright 1983,
 Carnegie Mellon University). Gaussian is a federally registered
 trademark of Gaussian, Inc.
  
 This software contains proprietary and confidential information,
 including trade secrets, belonging to Gaussian, Inc.
  
 This software is provided under written license and may be
 used, copied, transmitted, or stored only in accord with that
 written license.
  
 The following legend is applicable only to US Government
 contracts under FAR:
  
                    RESTRICTED RIGHTS LEGEND
  
 Use, reproduction and disclosure by the US Government is
 subject to restrictions as set forth in subparagraphs (a)
 and (c) of the Commercial Computer Software - Restricted
 Rights clause in FAR 52.227-19.
  
 Gaussian, Inc.
 340 Quinnipiac St., Bldg. 40, Wallingford CT 06492
  
  
 ---------------------------------------------------------------
 Warning -- This program may not be used in any manner that
 competes with the business of Gaussian, Inc. or will provide
 assistance to any competitor of Gaussian, Inc.  The licensee
 of this program is prohibited from giving any competitor of
 Gaussian, Inc. access to this program.  By using this program,
 the user acknowledges that Gaussian, Inc. is engaged in the
 business of creating and licensing software in the field of
 computational chemistry and represents and warrants to the
 licensee that it is not a competitor of Gaussian, Inc. and that
 it will not use this program in any manner prohibited above.
 ---------------------------------------------------------------
  

 Cite this work as:
 Gaussian 16, Revision A.03,
 M. J. Frisch, G. W. Trucks, H. B. Schlegel, G. E. Scuseria, 
 M. A. Robb, J. R. Cheeseman, G. Scalmani, V. Barone, 
 G. A. Petersson, H. Nakatsuji, X. Li, M. Caricato, A. V. Marenich, 
 J. Bloino, B. G. Janesko, R. Gomperts, B. Mennucci, H. P. Hratchian, 
 J. V. Ortiz, A. F. Izmaylov, J. L. Sonnenberg, D. Williams-Young, 
 F. Ding, F. Lipparini, F. Egidi, J. Goings, B. Peng, A. Petrone, 
 T. Henderson, D. Ranasinghe, V. G. Zakrzewski, J. Gao, N. Rega, 
 G. Zheng, W. Liang, M. Hada, M. Ehara, K. Toyota, R. Fukuda, 
 J. Hasegawa, M. Ishida, T. Nakajima, Y. Honda, O. Kitao, H. Nakai, 
 T. Vreven, K. Throssell, J. A. Montgomery, Jr., J. E. Peralta, 
 F. Ogliaro, M. J. Bearpark, J. J. Heyd, E. N. Brothers, K. N. Kudin, 
 V. N. Staroverov, T. A. Keith, R. Kobayashi, J. Normand, 
 K. Raghavachari, A. P. Rendell, J. C. Burant, S. S. Iyengar, 
 J. Tomasi, M. Cossi, J. M. Millam, M. Klene, C. Adamo, R. Cammi, 
 J. W. Ochterski, R. L. Martin, K. Morokuma, O. Farkas, 
 J. B. Foresman, and D. J. Fox, Gaussian, Inc., Wallingford CT, 2016.
 
 ******************************************
 Gaussian 16:  ES64L-G16RevA.03 25-Dec-2016
                23-Jan-2026 
 ******************************************
 %nprocshared=16
 Will use up to   16 processors via shared memory.
 %mem=16GB
 %oldchk=DDL-LR-14.chk
 %chk=DDL-S1-cLR-14.chk
 Copying data from "DDL-LR-14.chk" to current chk file "DDL-S1-cLR-14.chk"
 IOpt=  2 FromEx=T IUOpen= 4 IOptOp= 5 NList=   0 IFRang= 0 IUIn= 4 IUOut= 2.
 ----------------------------------------------------------------------
 #p CAM-B3LYP TZVP em=gd3bj td(nstates=6,root=1) scrf=(Solvent=TetraHyd
 roFuran,CorrectedLR,NonEquilibrium=Save) Geom=Check Guess=Read
 ----------------------------------------------------------------------
 1/29=2,30=1,38=1,172=1/1;
 2/12=2,40=1/2;
 3/5=19,7=101,11=9,14=-4,25=1,30=1,70=9002201,71=1,72=20,74=-40,116=-2,124=41/1,2,3,8;
 4/5=1/1;
 5/5=2,38=6,53=20/2;
 8/6=1,10=1,107=1,108=6/1;
 9/8=1,15=1,41=6,42=1,70=2,73=22/14;
 10/5=4,13=10,28=1,74=20/2;
 6/7=2,8=2,9=2,10=2,22=-1/1;
 99/5=1,9=1/99;
 Leave Link    1 at Fri Jan 23 21:36:43 2026, MaxMem=  2147483648 cpu:               0.9 elap:               0.1
 (Enter /data/home/wyx/g16/l101.exe)
 -------------------
 Title Card Required
 -------------------
 Structure from the checkpoint file:  "DDL-S1-cLR-14.chk"
 Charge =  0 Multiplicity = 1
 Z-Matrix found in chk file.
 O,0,2.835325,-1.564727,0.151062
 O,0,-3.419382,-1.621129,0.074814
 N,0,-0.635023,1.510422,-0.364906
 H,0,-0.943978,2.467738,-0.419095
 C,0,-1.237575,-0.75755,-0.223371
 C,0,0.701128,1.299455,-0.105661
 C,0,-1.611317,0.546648,-0.292429
 C,0,-2.22378,-1.828409,-0.10016
 C,0,0.219739,-1.111762,-0.35379
 H,0,0.467803,-1.956362,0.28668
 H,0,0.438047,-1.468115,-1.370088
 C,0,1.151411,0.02257,-0.013629
 C,0,2.512662,-0.393772,0.325538
 C,0,-3.002158,1.088073,-0.297785
 H,0,-3.004832,2.141752,-0.574133
 H,0,-3.636378,0.537489,-0.984702
 H,0,-3.457201,0.988603,0.685913
 C,0,-1.730135,-3.249197,-0.190404
 H,0,-2.579625,-3.920189,-0.269346
 H,0,-1.067446,-3.397565,-1.041172
 H,0,-1.16258,-3.510819,0.703151
 C,0,3.531918,0.543463,0.927016
 H,0,4.046737,1.099008,0.141193
 H,0,3.097844,1.25847,1.621044
 H,0,4.271857,-0.062626,1.44439
 C,0,1.468101,2.577239,0.033913
 H,0,1.520537,2.892581,1.076482
 H,0,2.477723,2.497665,-0.348671
 H,0,0.970578,3.371046,-0.521857
 Recover connectivity data from disk.
 ITRead=  0  0  0  0  0  0  0  0  0  0  0  0  0  0  0  0  0  0  0  0
 ITRead=  0  0  0  0  0  0  0  0  0
 MicOpt= -1 -1 -1 -1 -1 -1 -1 -1 -1 -1 -1 -1 -1 -1 -1 -1 -1 -1 -1 -1
 MicOpt= -1 -1 -1 -1 -1 -1 -1 -1 -1
 NAtoms=     29 NQM=       29 NQMF=       0 NMMI=      0 NMMIF=      0
                NMic=       0 NMicF=      0.
                    Isotopes and Nuclear Properties:
 (Nuclear quadrupole moments (NQMom) in fm**2, nuclear magnetic moments (NMagM)
  in nuclear magnetons)

  Atom         1           2           3           4           5           6           7           8           9          10
 IAtWgt=          16          16          14           1          12          12          12          12          12           1
 AtmWgt=  15.9949146  15.9949146  14.0030740   1.0078250  12.0000000  12.0000000  12.0000000  12.0000000  12.0000000   1.0078250
 NucSpn=           0           0           2           1           0           0           0           0           0           1
 AtZEff=   5.6000000   5.6000000   4.5500000   1.0000000   3.6000000   3.6000000   3.6000000   3.6000000   3.6000000   1.0000000
 NQMom=    0.0000000   0.0000000   2.0440000   0.0000000   0.0000000   0.0000000   0.0000000   0.0000000   0.0000000   0.0000000
 NMagM=    0.0000000   0.0000000   0.4037610   2.7928460   0.0000000   0.0000000   0.0000000   0.0000000   0.0000000   2.7928460
 AtZNuc=   8.0000000   8.0000000   7.0000000   1.0000000   6.0000000   6.0000000   6.0000000   6.0000000   6.0000000   1.0000000

  Atom        11          12          13          14          15          16          17          18          19          20
 IAtWgt=           1          12          12          12           1           1           1          12           1           1
 AtmWgt=   1.0078250  12.0000000  12.0000000  12.0000000   1.0078250   1.0078250   1.0078250  12.0000000   1.0078250   1.0078250
 NucSpn=           1           0           0           0           1           1           1           0           1           1
 AtZEff=   1.0000000   3.6000000   3.6000000   3.6000000   1.0000000   1.0000000   1.0000000   3.6000000   1.0000000   1.0000000
 NQMom=    0.0000000   0.0000000   0.0000000   0.0000000   0.0000000   0.0000000   0.0000000   0.0000000   0.0000000   0.0000000
 NMagM=    2.7928460   0.0000000   0.0000000   0.0000000   2.7928460   2.7928460   2.7928460   0.0000000   2.7928460   2.7928460
 AtZNuc=   1.0000000   6.0000000   6.0000000   6.0000000   1.0000000   1.0000000   1.0000000   6.0000000   1.0000000   1.0000000

  Atom        21          22          23          24          25          26          27          28          29
 IAtWgt=           1          12           1           1           1          12           1           1           1
 AtmWgt=   1.0078250  12.0000000   1.0078250   1.0078250   1.0078250  12.0000000   1.0078250   1.0078250   1.0078250
 NucSpn=           1           0           1           1           1           0           1           1           1
 AtZEff=   1.0000000   3.6000000   1.0000000   1.0000000   1.0000000   3.6000000   1.0000000   1.0000000   1.0000000
 NQMom=    0.0000000   0.0000000   0.0000000   0.0000000   0.0000000   0.0000000   0.0000000   0.0000000   0.0000000
 NMagM=    2.7928460   0.0000000   2.7928460   2.7928460   2.7928460   0.0000000   2.7928460   2.7928460   2.7928460
 AtZNuc=   1.0000000   6.0000000   1.0000000   1.0000000   1.0000000   6.0000000   1.0000000   1.0000000   1.0000000
 Leave Link  101 at Fri Jan 23 21:36:45 2026, MaxMem=  2147483648 cpu:               0.9 elap:               0.1
 (Enter /data/home/wyx/g16/l202.exe)
                          Input orientation:                          
 ---------------------------------------------------------------------
 Center     Atomic      Atomic             Coordinates (Angstroms)
 Number     Number       Type             X           Y           Z
 ---------------------------------------------------------------------
      1          8           0        2.835325   -1.564727    0.151062
      2          8           0       -3.419382   -1.621129    0.074814
      3          7           0       -0.635023    1.510422   -0.364906
      4          1           0       -0.943978    2.467738   -0.419095
      5          6           0       -1.237575   -0.757550   -0.223371
      6          6           0        0.701128    1.299455   -0.105661
      7          6           0       -1.611317    0.546648   -0.292429
      8          6           0       -2.223780   -1.828409   -0.100160
      9          6           0        0.219739   -1.111762   -0.353790
     10          1           0        0.467803   -1.956362    0.286680
     11          1           0        0.438047   -1.468115   -1.370088
     12          6           0        1.151411    0.022570   -0.013629
     13          6           0        2.512662   -0.393772    0.325538
     14          6           0       -3.002158    1.088073   -0.297785
     15          1           0       -3.004832    2.141752   -0.574133
     16          1           0       -3.636378    0.537489   -0.984702
     17          1           0       -3.457201    0.988603    0.685913
     18          6           0       -1.730135   -3.249197   -0.190404
     19          1           0       -2.579625   -3.920189   -0.269346
     20          1           0       -1.067446   -3.397565   -1.041172
     21          1           0       -1.162580   -3.510819    0.703151
     22          6           0        3.531918    0.543463    0.927016
     23          1           0        4.046737    1.099008    0.141193
     24          1           0        3.097844    1.258470    1.621044
     25          1           0        4.271857   -0.062626    1.444390
     26          6           0        1.468101    2.577239    0.033913
     27          1           0        1.520537    2.892581    1.076482
     28          1           0        2.477723    2.497665   -0.348671
     29          1           0        0.970578    3.371046   -0.521857
 ---------------------------------------------------------------------
                    Distance matrix (angstroms):
                    1          2          3          4          5
     1  O    0.000000
     2  O    6.255426   0.000000
     3  N    4.665413   4.213386   0.000000
     4  H    5.555986   4.805248   1.007394   0.000000
     5  C    4.168963   2.365368   2.350914   3.244532   0.000000
     6  C    3.581095   5.053809   1.377322   2.041935   2.829080
     7  C    4.942389   2.846616   1.373777   2.037639   1.358449
     8  C    5.072197   1.225987   3.707025   4.494051   1.461000
     9  C    2.702100   3.699508   2.758005   3.764482   1.505403
    10  H    2.403525   3.907362   3.695860   4.697223   2.146070
    11  H    2.840805   4.122004   3.321679   4.278472   2.151179
    12  C    2.319957   4.858160   2.351265   3.245598   2.521871
    13  C    1.227065   6.062872   3.743072   4.548745   3.807613
    14  C    6.427676   2.766348   2.405455   2.480785   2.554528
    15  H    6.954950   3.840867   2.461371   2.092229   3.413529
    16  H    6.898711   2.414393   3.215412   3.360772   2.830372
    17  H    6.811860   2.680592   3.056338   3.118521   2.966915
    18  C    4.878264   2.361038   4.887095   5.775265   2.540080
    19  H    5.920019   2.471703   5.769068   6.595709   3.435913
    20  H    4.473515   3.151627   4.973194   5.899492   2.769011
    21  H    4.480549   3.009799   5.160613   6.086901   2.905952
    22  C    2.351980   7.330230   4.468497   5.054552   5.075834
    23  H    2.926278   7.946476   4.726973   5.205245   5.612813
    24  H    3.193776   7.290895   4.235773   4.686237   5.124652
    25  H    2.447985   7.966168   5.461273   6.089356   5.798119
    26  C    4.363360   6.443249   2.391712   2.456691   4.302057
    27  H    4.738424   6.766071   2.938435   2.913945   4.756076
    28  H    4.108606   7.205529   3.265593   3.422556   4.941211
    29  H    5.319018   6.674547   2.462623   2.119446   4.691518
                    6          7          8          9         10
     6  C    0.000000
     7  C    2.439058   0.000000
     8  C    4.282365   2.460279   0.000000
     9  C    2.471289   2.471205   2.559042   0.000000
    10  H    3.287661   3.305021   2.722248   1.088617   0.000000
    11  H    3.054084   3.069285   2.971170   1.098866   1.727469
    12  C    1.357078   2.825784   3.850393   1.506795   2.115107
    13  C    2.516864   4.274749   4.967221   2.496896   2.573839
    14  C    3.714286   1.492517   3.025028   3.901670   4.653043
    15  H    3.829239   2.136726   4.073926   4.586040   5.440104
    16  H    4.490798   2.140140   2.894015   4.241193   4.967898
    17  H    4.244398   2.135361   3.174082   4.360321   4.923196
    18  C    5.158339   3.799074   1.506807   2.897815   2.594217
    19  H    6.167237   4.570644   2.128566   3.966211   3.667778
    20  H    5.105392   4.051324   2.164454   2.711869   2.489427
    21  H    5.221716   4.201855   2.145217   2.963681   2.290837
    22  C    3.106657   5.285823   6.309432   3.918005   4.005990
    23  H    3.360687   5.701465   6.924406   4.447294   4.707995
    24  H    2.954224   5.132667   6.388352   4.219177   4.362658
    25  H    4.124079   6.164373   6.906296   4.555634   4.404243
    26  C    1.496817   3.703055   5.749582   3.913751   4.649519
    27  H    2.146379   4.145579   6.139393   4.446630   5.024369
    28  H    2.156630   4.530991   6.393810   4.257521   4.927657
    29  H    2.130097   3.833542   6.116869   4.548359   5.411820
                   11         12         13         14         15
    11  H    0.000000
    12  C    2.137992   0.000000
    13  C    2.886761   1.463345   0.000000
    14  C    4.418025   4.297462   5.744357   0.000000
    15  H    5.051544   4.698878   6.138488   1.089319   0.000000
    16  H    4.557621   4.912336   6.355680   1.085004   1.772308
    17  H    5.043368   4.760450   6.138411   1.088403   1.766948
    18  C    3.043833   4.363372   5.140134   4.521226   5.552876
    19  H    4.041119   5.434277   6.222611   5.026135   6.084474
    20  H    2.469306   4.204342   4.869070   4.941324   5.886903
    21  H    3.321591   4.284059   4.833837   5.053289   6.080864
    22  C    4.346858   2.612079   1.509658   6.670149   6.894714
    23  H    4.679395   3.092831   2.148432   7.062559   7.164051
    24  H    4.843104   2.826341   2.179605   6.396950   6.545353
    25  H    4.959313   3.445325   2.110984   7.567733   7.866633
    26  C    4.404216   2.574662   3.162761   4.723437   4.535030
    27  H    5.115971   3.092177   3.514021   5.059608   4.875165
    28  H    4.575039   2.827977   2.969206   5.658501   5.498720
    29  H    4.941717   3.391650   4.155714   4.587462   4.161464
                   16         17         18         19         20
    16  H    0.000000
    17  H    1.739702   0.000000
    18  C    4.313196   4.659360   0.000000
    19  H    4.636740   5.077292   1.085401   0.000000
    20  H    4.699707   5.285094   1.088566   1.776383   0.000000
    21  H    5.035605   5.050780   1.090415   1.766734   1.750583
    22  C    7.418839   7.007429   6.581953   7.662012   6.368643
    23  H    7.785448   7.524493   7.238031   8.322833   6.911731
    24  H    7.256685   6.626908   6.849072   7.913643   6.790854
    25  H    8.294625   7.837009   6.989327   8.047390   6.768160
    26  C    5.590515   5.216078   6.650292   7.661111   6.578988
    27  H    6.032306   5.343740   7.063519   8.064516   7.123767
    28  H    6.452058   6.210552   7.124433   8.171408   6.913864
    29  H    5.428380   5.171070   7.157606   8.113557   7.087829
                   21         22         23         24         25
    21  H    0.000000
    22  C    6.206902   0.000000
    23  H    6.978774   1.091415   0.000000
    24  H    6.460639   1.086890   1.765159   0.000000
    25  H    6.478625   1.087442   1.760226   1.776178   0.000000
    26  C    6.665794   3.032032   2.974229   2.629486   4.101144
    27  H    6.952843   3.096183   3.236256   2.335544   4.054426
    28  H    7.103521   2.560783   2.158243   2.408305   3.604036
    29  H    7.308288   4.081044   3.881307   3.685141   5.153123
                   26         27         28         29
    26  C    0.000000
    27  H    1.090477   0.000000
    28  H    1.082608   1.761597   0.000000
    29  H    1.089284   1.756722   1.750507   0.000000
 Stoichiometry    C11H15NO2
 Framework group  C1[X(C11H15NO2)]
 Deg. of freedom    81
 Full point group                 C1      NOp   1
 RotChk:  IX=0 Diff= 9.85D-16
 Largest Abelian subgroup         C1      NOp   1
 Largest concise Abelian subgroup C1      NOp   1
                         Standard orientation:                         
 ---------------------------------------------------------------------
 Center     Atomic      Atomic             Coordinates (Angstroms)
 Number     Number       Type             X           Y           Z
 ---------------------------------------------------------------------
      1          8           0        2.288081   -2.277711   -0.196038
      2          8           0       -3.594113   -0.246142    0.438690
      3          7           0        0.025082    1.801877   -0.239298
      4          1           0        0.053309    2.808866   -0.234841
      5          6           0       -1.289834   -0.140792   -0.084918
      6          6           0        1.230518    1.143187   -0.138969
      7          6           0       -1.206753    1.215104   -0.079479
      8          6           0       -2.562034   -0.828142    0.123833
      9          6           0       -0.057878   -0.950820   -0.388855
     10          1           0       -0.047014   -1.867236    0.198639
     11          1           0       -0.074361   -1.296806   -1.431702
     12          6           0        1.230582   -0.213859   -0.129642
     13          6           0        2.398175   -1.079051    0.042250
     14          6           0       -2.326795    2.187495    0.086562
     15          1           0       -2.001343    3.196868   -0.162161
     16          1           0       -3.174278    1.922136   -0.536809
     17          1           0       -2.688890    2.185215    1.112964
     18          6           0       -2.587962   -2.323920   -0.056288
     19          1           0       -3.617350   -2.668087   -0.054220
     20          1           0       -2.101880   -2.632043   -0.980279
     21          1           0       -2.056320   -2.813370    0.760291
     22          6           0        3.728052   -0.572643    0.546280
     23          1           0        4.319516   -0.173091   -0.279381
     24          1           0        3.631558    0.202283    1.302261
     25          1           0        4.267644   -1.420660    0.961295
     26          6           0        2.393291    2.082156   -0.056773
     27          1           0        2.652015    2.297908    0.980364
     28          1           0        3.273754    1.694851   -0.553581
     29          1           0        2.140148    3.028563   -0.532979
 ---------------------------------------------------------------------
 Rotational constants (GHZ):           1.0789286           0.4907179           0.3467318
 Leave Link  202 at Fri Jan 23 21:36:45 2026, MaxMem=  2147483648 cpu:               0.0 elap:               0.0
 (Enter /data/home/wyx/g16/l301.exe)
 Standard basis: TZVP (5D, 7F)
 Ernie: Thresh=  0.10000D-02 Tol=  0.10000D-05 Strict=F.
 There are   370 symmetry adapted cartesian basis functions of A   symmetry.
 There are   356 symmetry adapted basis functions of A   symmetry.
   356 basis functions,   610 primitive gaussians,   370 cartesian basis functions
    52 alpha electrons       52 beta electrons
       nuclear repulsion energy       900.8138784471 Hartrees.
 IExCor=20419 DFT=T Ex+Corr=CAM-B3LYP ExCW=0 ScaHFX=  1.000000
 ScaDFX=  1.000000  1.000000  1.000000  0.810000 ScalE2=  1.000000  1.000000
 IRadAn=      5 IRanWt=     -1 IRanGd=            0 ICorTp=0 IEmpDi=141
 HFx  wShort=  0.000000 wLong=  0.330000 cFull=  0.190000 cShort=  0.000000 cLong=  0.460000
 DFx  wShort=  0.000000 wLong=  0.330000 cFull=  0.190000 cShort=  0.000000 cLong=  0.460000
 NAtoms=   29 NActive=   29 NUniq=   29 SFac= 1.00D+00 NAtFMM=   60 NAOKFM=F Big=F
 Integral buffers will be    131072 words long.
 Raffenetti 1 integral format.
 Two-electron integral symmetry is turned on.
 R6Disp:  Grimme-D3(BJ) Dispersion energy=       -0.0262051921 Hartrees.
 Nuclear repulsion after empirical dispersion term =      900.7876732550 Hartrees.
 ------------------------------------------------------------------------------
 Polarizable Continuum Model (PCM)
 =================================
 Model                : PCM.
 Atomic radii         : UFF (Universal Force Field).
 Polarization charges : Total charges.
 Charge compensation  : None.
 Solution method      : On-the-fly selection.
 Cavity type          : Scaled VdW (van der Waals Surface) (Alpha=1.100).
 Cavity algorithm     : GePol (No added spheres)
                        Default sphere list used, NSphG=   29.
                        Lebedev-Laikov grids with approx.  5.0 points / Ang**2.
                        Smoothing algorithm: York/Karplus (Gamma=1.0000).
                        Polarization charges: spherical gaussians, with
                                              point-specific exponents (IZeta= 3).
                        Self-potential: point-specific (ISelfS= 7).
                        Self-field    : sphere-specific E.n sum rule (ISelfD= 2).
 1st derivatives      : Analytical E(r).r(x)/FMM algorithm (CHGder, D1EAlg=3).
                        Cavity 1st derivative terms included.
 Solvent              : TetraHydroFuran, Eps=   7.425700 Eps(inf)=   1.974025
 ------------------------------------------------------------------------------
 GePol: Number of generator spheres                  =      29
 GePol: Total number of spheres                      =      29
 GePol: Number of exposed spheres                    =      29 (100.00%)
 GePol: Number of points                             =    2103
 GePol: Average weight of points                     =       0.13
 GePol: Minimum weight of points                     =   0.18D-10
 GePol: Maximum weight of points                     =    0.20577
 GePol: Number of points with low weight             =     164
 GePol: Fraction of low-weight points (<1% of avg)   =       7.80%
 GePol: Cavity surface area                          =    268.633 Ang**2
 GePol: Cavity volume                                =    286.670 Ang**3
 Leave Link  301 at Fri Jan 23 21:36:45 2026, MaxMem=  2147483648 cpu:               0.6 elap:               0.0
 (Enter /data/home/wyx/g16/l302.exe)
 NPDir=0 NMtPBC=     1 NCelOv=     1 NCel=       1 NClECP=     1 NCelD=      1
         NCelK=      1 NCelE2=     1 NClLst=     1 CellRange=     0.0.
 One-electron integrals computed using PRISM.
 One-electron integral symmetry used in STVInt
 NBasis=   356 RedAO= T EigKep=  4.72D-05  NBF=   356
 NBsUse=   356 1.00D-06 EigRej= -1.00D+00 NBFU=   356
 Precomputing XC quadrature grid using
 IXCGrd= 4 IRadAn=           5 IRanWt=          -1 IRanGd=           0 AccXCQ= 0.00D+00.
 Generated NRdTot=       0 NPtTot=           0 NUsed=           0 NTot=          32
 NSgBfM=   366   366   366   366   366 MxSgAt=    29 MxSgA2=    29.
 Leave Link  302 at Fri Jan 23 21:36:46 2026, MaxMem=  2147483648 cpu:               3.2 elap:               0.2
 (Enter /data/home/wyx/g16/l303.exe)
 DipDrv:  MaxL=1.
 Leave Link  303 at Fri Jan 23 21:36:46 2026, MaxMem=  2147483648 cpu:               0.6 elap:               0.1
 (Enter /data/home/wyx/g16/l308.exe)
 Leave Link  308 at Fri Jan 23 21:36:46 2026, MaxMem=  2147483648 cpu:               0.7 elap:               0.1
 (Enter /data/home/wyx/g16/l401.exe)
 Initial guess from the checkpoint file:  "DDL-S1-cLR-14.chk"
 B after Tr=    -0.000000   -0.000000   -0.000000
         Rot=    1.000000    0.000000   -0.000000   -0.000000 Ang=   0.00 deg.
 Guess basis will be translated and rotated to current coordinates.
 JPrj=2 DoOrth=T DoCkMO=T.
 Leave Link  401 at Fri Jan 23 21:36:47 2026, MaxMem=  2147483648 cpu:               2.3 elap:               0.2
 (Enter /data/home/wyx/g16/l502.exe)
 Integral symmetry usage will be decided dynamically.
 Closed shell SCF:
 Using DIIS extrapolation, IDIIS=  1040.
 NGot=  2147483648 LenX=  2147200095 LenY=  2147062754
 Requested convergence on RMS density matrix=1.00D-08 within 128 cycles.
 Requested convergence on MAX density matrix=1.00D-06.
 Requested convergence on             energy=1.00D-06.
 No special actions if energy rises.
 Fock matrices will be formed incrementally for  20 cycles.

 Cycle   1  Pass 1  IDiag  1:
 FoFJK:  IHMeth= 1 ICntrl=       0 DoSepK=T KAlg= 0 I1Cent=           0 FoldK=F
 IRaf=         1 NMat=       1 IRICut=       1 DoRegI=T DoRafI=F ISym2E= 0 IDoP0=0 IntGTp=1.
 FoFCou: FMM=F IPFlag=           0 FMFlag=      100000 FMFlg1=           0
         NFxFlg=           0 DoJE=T BraDBF=F KetDBF=F FulRan=T
         wScrn=  0.000000 ICntrl=       500 IOpCl=  0 I1Cent=           0 NGrid=           0
         NMat0=    1 NMatS0=      1 NMatT0=    0 NMatD0=    1 NMtDS0=    0 NMtDT0=    0
 Symmetry not used in FoFCou.
 Inv3:  Mode=1 IEnd=    13267827.
 Iteration    1 A*A^-1 deviation from unit magnitude is 3.11D-15 for    847.
 Iteration    1 A*A^-1 deviation from orthogonality  is 2.21D-15 for   1787    625.
 Iteration    1 A^-1*A deviation from unit magnitude is 3.55D-15 for    847.
 Iteration    1 A^-1*A deviation from orthogonality  is 2.20D-15 for   1350     64.
 E= -633.328712716776    
 DIIS: error= 1.56D-08 at cycle   1 NSaved=   1.
 NSaved= 1 IEnMin= 1 EnMin= -633.328712716776     IErMin= 1 ErrMin= 1.56D-08
 ErrMax= 1.56D-08  0.00D+00 EMaxC= 1.00D-01 BMatC= 6.54D-14 BMatP= 6.54D-14
 IDIUse=1 WtCom= 1.00D+00 WtEn= 0.00D+00
 Coeff-Com:  0.100D+01
 Coeff:      0.100D+01
 Gap=     0.238 Goal=   None    Shift=    0.000
 RMSDP=2.84D-09 MaxDP=8.61D-08              OVMax= 3.48D-07

 Error on total polarization charges =  0.01422
 SCF Done:  E(RCAM-B3LYP) =  -633.328712717     A.U. after    1 cycles
            NFock=  1  Conv=0.28D-08     -V/T= 2.0041
 KE= 6.307264360529D+02 PE=-3.277666674319D+03 EE= 1.112823852294D+03
 Leave Link  502 at Fri Jan 23 21:36:52 2026, MaxMem=  2147483648 cpu:              85.7 elap:               5.6
 (Enter /data/home/wyx/g16/l801.exe)
 DoSCS=F DFT=T ScalE2(SS,OS)=  1.000000  1.000000
 ExpMin= 9.52D-02 ExpMax= 2.70D+04 ExpMxC= 9.22D+02 IAcc=3 IRadAn=         5 AccDes= 0.00D+00
 HarFok:  IExCor=  205 AccDes= 0.00D+00 IRadAn=         5 IDoV=-2 UseB2=F ITyADJ=14
 ICtDFT= 12500011 ScaDFX=  1.000000  1.000000  1.000000  1.000000
 Largest valence mixing into a core orbital is  5.64D-05
 Largest core mixing into a valence orbital is  1.20D-05
 Range of M.O.s used for correlation:    15   356
 NBasis=   356 NAE=    52 NBE=    52 NFC=    14 NFV=     0
 NROrb=    342 NOA=    38 NOB=    38 NVA=   304 NVB=   304

 **** Warning!!: The largest alpha MO coefficient is  0.53350672D+02

 Leave Link  801 at Fri Jan 23 21:36:53 2026, MaxMem=  2147483648 cpu:               1.0 elap:               0.1
 (Enter /data/home/wyx/g16/l914.exe)
 RHF ground state
 Two-electron integrals replicated using symmetry.
 MDV=  2147483648 DFT=T DoStab=F Mixed=T DoRPA=T DoScal=F NonHer=T
 NEqPCM:  Using equilibrium solvation (IEInf=0, Eps=   7.4257, EpsInf=   1.9740)
 Making orbital integer symmetry assigments:
 Orbital symmetries:
       Occupied  (A) (A) (A) (A) (A) (A) (A) (A) (A) (A) (A) (A)
                 (A) (A) (A) (A) (A) (A) (A) (A) (A) (A) (A) (A)
                 (A) (A) (A) (A) (A) (A) (A) (A) (A) (A) (A) (A)
                 (A) (A) (A) (A) (A) (A) (A) (A) (A) (A) (A) (A)
                 (A) (A) (A) (A)
       Virtual   (A) (A) (A) (A) (A) (A) (A) (A) (A) (A) (A) (A)
                 (A) (A) (A) (A) (A) (A) (A) (A) (A) (A) (A) (A)
                 (A) (A) (A) (A) (A) (A) (A) (A) (A) (A) (A) (A)
                 (A) (A) (A) (A) (A) (A) (A) (A) (A) (A) (A) (A)
                 (A) (A) (A) (A) (A) (A) (A) (A) (A) (A) (A) (A)
                 (A) (A) (A) (A) (A) (A) (A) (A) (A) (A) (A) (A)
                 (A) (A) (A) (A) (A) (A) (A) (A) (A) (A) (A) (A)
                 (A) (A) (A) (A) (A) (A) (A) (A) (A) (A) (A) (A)
                 (A) (A) (A) (A) (A) (A) (A) (A) (A) (A) (A) (A)
                 (A) (A) (A) (A) (A) (A) (A) (A) (A) (A) (A) (A)
                 (A) (A) (A) (A) (A) (A) (A) (A) (A) (A) (A) (A)
                 (A) (A) (A) (A) (A) (A) (A) (A) (A) (A) (A) (A)
                 (A) (A) (A) (A) (A) (A) (A) (A) (A) (A) (A) (A)
                 (A) (A) (A) (A) (A) (A) (A) (A) (A) (A) (A) (A)
                 (A) (A) (A) (A) (A) (A) (A) (A) (A) (A) (A) (A)
                 (A) (A) (A) (A) (A) (A) (A) (A) (A) (A) (A) (A)
                 (A) (A) (A) (A) (A) (A) (A) (A) (A) (A) (A) (A)
                 (A) (A) (A) (A) (A) (A) (A) (A) (A) (A) (A) (A)
                 (A) (A) (A) (A) (A) (A) (A) (A) (A) (A) (A) (A)
                 (A) (A) (A) (A) (A) (A) (A) (A) (A) (A) (A) (A)
                 (A) (A) (A) (A) (A) (A) (A) (A) (A) (A) (A) (A)
                 (A) (A) (A) (A) (A) (A) (A) (A) (A) (A) (A) (A)
                 (A) (A) (A) (A) (A) (A) (A) (A) (A) (A) (A) (A)
                 (A) (A) (A) (A) (A) (A) (A) (A) (A) (A) (A) (A)
                 (A) (A) (A) (A) (A) (A) (A) (A) (A) (A) (A) (A)
                 (A) (A) (A) (A)
 PCM Corrected Linear-Response:
 Compute the excitation energies in the ground state reaction field.
    24 initial guesses have been made.
 Convergence on wavefunction:    0.000001000000000
 Davidson Disk Diagonalization:  ConvIn= 1.00D-06 SkipCon=T Conv= 1.00D-06.
 Max sub-space:  2000 roots to seek:    24 dimension of matrix:        23104
 Iteration     1 Dimension    24 NMult     0 NNew     24
 CISAX will form    24 AO SS matrices at one time.
 NMat=    24 NSing=    24 JSym2X= 0.
 FoFJK:  IHMeth= 1 ICntrl=       0 DoSepK=T KAlg= 0 I1Cent=           0 FoldK=F
 IRaf=         1 NMat=      48 IRICut=       1 DoRegI=T DoRafI=F ISym2E= 0 IDoP0=3 IntGTp=3.
 FoFCou: FMM=F IPFlag=           0 FMFlag=      100000 FMFlg1=           0
         NFxFlg=           0 DoJE=F BraDBF=F KetDBF=F FulRan=T
         wScrn=  0.000000 ICntrl=       500 IOpCl=  0 I1Cent=           0 NGrid=           0
         NMat0=   24 NMatS0=     24 NMatT0=    0 NMatD0=   24 NMtDS0=    0 NMtDT0=    0
 Symmetry not used in FoFCou.
 New state      2 was old state      3
 New state      3 was old state      4
 New state      4 was old state      2
 New state      5 was old state      6
 New state      6 was old state      5
 Excitation Energies [eV] at current iteration:
 Root      1 :     4.015604247743817
 Root      2 :     4.337079909972856
 Root      3 :     4.519234427470213
 Root      4 :     5.562315392002853
 Root      5 :     6.203574419892485
 Root      6 :     6.569637961912702
 Root      7 :     6.749393473808739
 Root      8 :     6.820328484503682
 Root      9 :     7.029189152063521
 Root     10 :     7.065305011059653
 Root     11 :     7.297392513411601
 Root     12 :     7.443331848889826
 Root     13 :     7.591857433444426
 Root     14 :     7.667589695896812
 Root     15 :     7.781898799742391
 Root     16 :     8.054208890318003
 Root     17 :     8.134314304390076
 Root     18 :     8.269217749282094
 Root     19 :     8.276637862932752
 Root     20 :     8.579615524497353
 Root     21 :     8.711296458013880
 Root     22 :     9.016176195234769
 Root     23 :     9.116812999786797
 Root     24 :     9.159650919843852
 Iteration     2 Dimension    36 NMult    24 NNew     12
 CISAX will form    12 AO SS matrices at one time.
 NMat=    12 NSing=    12 JSym2X= 0.
 Root      1 not converged, maximum delta is    0.057593577916895
 Root      2 not converged, maximum delta is    0.073511551991818
 Root      3 not converged, maximum delta is    0.091242739911601
 Root      4 not converged, maximum delta is    0.214374866679119
 New state      5 was old state      6
 Root      5 not converged, maximum delta is    0.233921570587826
 New state      6 was old state      5
 Root      6 not converged, maximum delta is    0.136570141566295
 Excitation Energies [eV] at current iteration:
 Root      1 :     3.560368222653253   Change is   -0.455236025090563
 Root      2 :     4.095431271553023   Change is   -0.241648638419833
 Root      3 :     4.243013621365300   Change is   -0.276220806104913
 Root      4 :     5.241801213716841   Change is   -0.320514178286012
 Root      5 :     5.737257862867064   Change is   -0.832380099045638
 Root      6 :     6.073292629586480   Change is   -0.130281790306005
 Iteration     3 Dimension    48 NMult    36 NNew     12
 CISAX will form    12 AO SS matrices at one time.
 NMat=    12 NSing=    12 JSym2X= 0.
 Root      1 not converged, maximum delta is    0.010193631797673
 Root      2 not converged, maximum delta is    0.013538258103339
 Root      3 not converged, maximum delta is    0.013781214369177
 Root      4 not converged, maximum delta is    0.025248562105236
 Root      5 not converged, maximum delta is    0.026116587883599
 Root      6 not converged, maximum delta is    0.019432761353903
 Excitation Energies [eV] at current iteration:
 Root      1 :     3.540325001529023   Change is   -0.020043221124230
 Root      2 :     4.081567671960205   Change is   -0.013863599592818
 Root      3 :     4.228418431164814   Change is   -0.014595190200486
 Root      4 :     5.219620244461064   Change is   -0.022180969255778
 Root      5 :     5.694580742946254   Change is   -0.042677119920810
 Root      6 :     6.062341298366898   Change is   -0.010951331219582
 Iteration     4 Dimension    60 NMult    48 NNew     12
 CISAX will form    12 AO SS matrices at one time.
 NMat=    12 NSing=    12 JSym2X= 0.
 Root      1 not converged, maximum delta is    0.002430756585260
 Root      2 not converged, maximum delta is    0.001883868943712
 Root      3 not converged, maximum delta is    0.002142161712176
 Root      4 not converged, maximum delta is    0.002388229572271
 Root      5 not converged, maximum delta is    0.004141674246609
 Root      6 not converged, maximum delta is    0.003923921582905
 Excitation Energies [eV] at current iteration:
 Root      1 :     3.538634489347341   Change is   -0.001690512181682
 Root      2 :     4.080787291426094   Change is   -0.000780380534111
 Root      3 :     4.227566947345030   Change is   -0.000851483819783
 Root      4 :     5.217691886987418   Change is   -0.001928357473646
 Root      5 :     5.690568963966637   Change is   -0.004011778979616
 Root      6 :     6.061516536288124   Change is   -0.000824762078774
 Iteration     5 Dimension    72 NMult    60 NNew     12
 CISAX will form    12 AO SS matrices at one time.
 NMat=    12 NSing=    12 JSym2X= 0.
 Root      1 not converged, maximum delta is    0.000714432331904
 Root      2 not converged, maximum delta is    0.000301374679520
 Root      3 not converged, maximum delta is    0.000555471643291
 Root      4 not converged, maximum delta is    0.001013749673052
 Root      5 not converged, maximum delta is    0.001073341816083
 Root      6 not converged, maximum delta is    0.001088205673337
 Excitation Energies [eV] at current iteration:
 Root      1 :     3.538528878867470   Change is   -0.000105610479871
 Root      2 :     4.080737354389355   Change is   -0.000049937036739
 Root      3 :     4.227514146586613   Change is   -0.000052800758418
 Root      4 :     5.217546484994280   Change is   -0.000145401993138
 Root      5 :     5.690224170571276   Change is   -0.000344793395362
 Root      6 :     6.061447787500038   Change is   -0.000068748788086
 Iteration     6 Dimension    84 NMult    72 NNew     12
 CISAX will form    12 AO SS matrices at one time.
 NMat=    12 NSing=    12 JSym2X= 0.
 Root      1 not converged, maximum delta is    0.000200077093954
 Root      2 not converged, maximum delta is    0.000083843692024
 Root      3 not converged, maximum delta is    0.000150612376267
 Root      4 not converged, maximum delta is    0.000548565490197
 Root      5 not converged, maximum delta is    0.000250520432745
 Root      6 not converged, maximum delta is    0.000182411040524
 Excitation Energies [eV] at current iteration:
 Root      1 :     3.538522344807987   Change is   -0.000006534059483
 Root      2 :     4.080733925657254   Change is   -0.000003428732101
 Root      3 :     4.227510932631856   Change is   -0.000003213954757
 Root      4 :     5.217532885321871   Change is   -0.000013599672409
 Root      5 :     5.690198064471253   Change is   -0.000026106100023
 Root      6 :     6.061442226099472   Change is   -0.000005561400566
 Iteration     7 Dimension    96 NMult    84 NNew     12
 CISAX will form    12 AO SS matrices at one time.
 NMat=    12 NSing=    12 JSym2X= 0.
 Root      1 not converged, maximum delta is    0.000019988118820
 Root      2 not converged, maximum delta is    0.000015644909207
 Root      3 not converged, maximum delta is    0.000035082145864
 Root      4 not converged, maximum delta is    0.000163926343531
 Root      5 not converged, maximum delta is    0.000093729956416
 Root      6 not converged, maximum delta is    0.000100414666997
 Excitation Energies [eV] at current iteration:
 Root      1 :     3.538522003311393   Change is   -0.000000341496593
 Root      2 :     4.080733749143648   Change is   -0.000000176513607
 Root      3 :     4.227510757588615   Change is   -0.000000175043242
 Root      4 :     5.217531510918171   Change is   -0.000001374403700
 Root      5 :     5.690195920916657   Change is   -0.000002143554596
 Root      6 :     6.061441690130469   Change is   -0.000000535969003
 Iteration     8 Dimension   108 NMult    96 NNew     12
 CISAX will form    12 AO SS matrices at one time.
 NMat=    12 NSing=    12 JSym2X= 0.
 Root      1 not converged, maximum delta is    0.000003767391972
 Root      2 not converged, maximum delta is    0.000003687554813
 Root      3 not converged, maximum delta is    0.000004140197413
 Root      4 not converged, maximum delta is    0.000026187465357
 Root      5 not converged, maximum delta is    0.000022453885584
 Root      6 not converged, maximum delta is    0.000024130787557
 Excitation Energies [eV] at current iteration:
 Root      1 :     3.538521991604498   Change is   -0.000000011706895
 Root      2 :     4.080733738147368   Change is   -0.000000010996280
 Root      3 :     4.227510748538110   Change is   -0.000000009050504
 Root      4 :     5.217531402382310   Change is   -0.000000108535861
 Root      5 :     5.690195773441002   Change is   -0.000000147475655
 Root      6 :     6.061441640858636   Change is   -0.000000049271833
 Iteration     9 Dimension   120 NMult   108 NNew     12
 CISAX will form    12 AO SS matrices at one time.
 NMat=    12 NSing=    12 JSym2X= 0.
 Root      1 has converged.
 Root      2 has converged.
 Root      3 has converged.
 Root      4 not converged, maximum delta is    0.000003584064228
 Root      5 not converged, maximum delta is    0.000004714089876
 Root      6 not converged, maximum delta is    0.000004486792459
 Excitation Energies [eV] at current iteration:
 Root      1 :     3.538521991148985   Change is   -0.000000000455513
 Root      2 :     4.080733737747525   Change is   -0.000000000399843
 Root      3 :     4.227510748218266   Change is   -0.000000000319845
 Root      4 :     5.217531397682921   Change is   -0.000000004699390
 Root      5 :     5.690195765730057   Change is   -0.000000007710944
 Root      6 :     6.061441637726054   Change is   -0.000000003132582
 Iteration    10 Dimension   126 NMult   120 NNew      6
 CISAX will form     6 AO SS matrices at one time.
 NMat=     6 NSing=     6 JSym2X= 0.
 Root      1 has converged.
 Root      2 has converged.
 Root      3 has converged.
 Root      4 has converged.
 Root      5 not converged, maximum delta is    0.000001274891267
 Root      6 not converged, maximum delta is    0.000001159290000
 Excitation Energies [eV] at current iteration:
 Root      1 :     3.538521991145872   Change is   -0.000000000003113
 Root      2 :     4.080733737744461   Change is   -0.000000000003063
 Root      3 :     4.227510748215115   Change is   -0.000000000003150
 Root      4 :     5.217531397460666   Change is   -0.000000000222254
 Root      5 :     5.690195765255524   Change is   -0.000000000474534
 Root      6 :     6.061441637528409   Change is   -0.000000000197644
 Iteration    11 Dimension   130 NMult   126 NNew      4
 CISAX will form     4 AO SS matrices at one time.
 NMat=     4 NSing=     4 JSym2X= 0.
 Root      1 has converged.
 Root      2 has converged.
 Root      3 has converged.
 Root      4 has converged.
 Root      5 has converged.
 Root      6 has converged.
 Excitation Energies [eV] at current iteration:
 Root      1 :     3.538521991145639   Change is   -0.000000000000233
 Root      2 :     4.080733737744301   Change is   -0.000000000000161
 Root      3 :     4.227510748214726   Change is   -0.000000000000389
 Root      4 :     5.217531397454615   Change is   -0.000000000006050
 Root      5 :     5.690195765221254   Change is   -0.000000000034269
 Root      6 :     6.061441637513341   Change is   -0.000000000015068
 Convergence achieved on expansion vectors.
 PCM Corrected Linear-Response:
 The state of interest is root number   1
 Excitation energy =    3.5385 eV, Total energy =  -633.198674426    
 Recompute the excitation energies using the linear response reaction field.
 Convergence on wavefunction:    0.000001000000000
 Davidson Disk Diagonalization:  ConvIn= 1.00D-06 SkipCon=T Conv= 1.00D-06.
 Max sub-space:  2000 roots to seek:     6 dimension of matrix:        23104
 Iteration     1 Dimension     6 NMult     0 NNew      6
 CISAX will form     6 AO SS matrices at one time.
 NMat=     6 NSing=     6 JSym2X= 0.
 Excitation Energies [eV] at current iteration:
 Root      1 :     3.631856627631204
 Root      2 :     4.109123531028791
 Root      3 :     4.255065363079420
 Root      4 :     5.293407104016577
 Root      5 :     5.854364858285239
 Root      6 :     6.039944365859294
 Iteration     2 Dimension    18 NMult     6 NNew     12
 CISAX will form    12 AO SS matrices at one time.
 NMat=    12 NSing=    12 JSym2X= 0.
 Root      1 not converged, maximum delta is    0.019777893599087
 Root      2 not converged, maximum delta is    0.026740305374775
 Root      3 not converged, maximum delta is    0.007961689963975
 Root      4 not converged, maximum delta is    0.211373698422136
 Root      5 not converged, maximum delta is    0.248361558375770
 Root      6 not converged, maximum delta is    0.089269170176551
 Excitation Energies [eV] at current iteration:
 Root      1 :     3.425429698294585   Change is   -0.206426929336619
 Root      2 :     4.075504982467812   Change is   -0.033618548560979
 Root      3 :     4.222189614882724   Change is   -0.032875748196696
 Root      4 :     5.092232765913513   Change is   -0.201174338103063
 Root      5 :     5.568558449905761   Change is   -0.285806408379478
 Root      6 :     6.019094588199691   Change is   -0.020849777659604
 Iteration     3 Dimension    30 NMult    18 NNew     12
 CISAX will form    12 AO SS matrices at one time.
 NMat=    12 NSing=    12 JSym2X= 0.
 Root      1 not converged, maximum delta is    0.002781263623155
 Root      2 not converged, maximum delta is    0.000875002874102
 Root      3 not converged, maximum delta is    0.000959102118985
 Root      4 not converged, maximum delta is    0.012179790237121
 Root      5 not converged, maximum delta is    0.009904170855025
 Root      6 not converged, maximum delta is    0.009439322891954
 Excitation Energies [eV] at current iteration:
 Root      1 :     3.422578213159565   Change is   -0.002851485135019
 Root      2 :     4.075207265847213   Change is   -0.000297716620598
 Root      3 :     4.221881244245211   Change is   -0.000308370637512
 Root      4 :     5.084041021719074   Change is   -0.008191744194440
 Root      5 :     5.560675138926578   Change is   -0.007883310979184
 Root      6 :     6.017658843054827   Change is   -0.001435745144863
 Iteration     4 Dimension    42 NMult    30 NNew     12
 CISAX will form    12 AO SS matrices at one time.
 NMat=    12 NSing=    12 JSym2X= 0.
 Root      1 not converged, maximum delta is    0.001530607413111
 Root      2 not converged, maximum delta is    0.000191374333428
 Root      3 not converged, maximum delta is    0.000150914021976
 Root      4 not converged, maximum delta is    0.001917341521310
 Root      5 not converged, maximum delta is    0.002479762341315
 Root      6 not converged, maximum delta is    0.010699153560549
 Excitation Energies [eV] at current iteration:
 Root      1 :     3.422186305659514   Change is   -0.000391907500051
 Root      2 :     4.075191153521625   Change is   -0.000016112325588
 Root      3 :     4.221864341438049   Change is   -0.000016902807162
 Root      4 :     5.082896884325976   Change is   -0.001144137393098
 Root      5 :     5.559672161536168   Change is   -0.001002977390409
 Root      6 :     6.017132387083562   Change is   -0.000526455971266
 Iteration     5 Dimension    54 NMult    42 NNew     12
 CISAX will form    12 AO SS matrices at one time.
 NMat=    12 NSing=    12 JSym2X= 0.
 Root      1 not converged, maximum delta is    0.000638072793094
 Root      2 not converged, maximum delta is    0.000091559416032
 Root      3 not converged, maximum delta is    0.000077735768343
 Root      4 not converged, maximum delta is    0.000749537943083
 Root      5 not converged, maximum delta is    0.000729483595125
 Root      6 not converged, maximum delta is    0.004679403281028
 Excitation Energies [eV] at current iteration:
 Root      1 :     3.422157921670218   Change is   -0.000028383989296
 Root      2 :     4.075190070580534   Change is   -0.000001082941091
 Root      3 :     4.221863024053875   Change is   -0.000001317384174
 Root      4 :     5.082792088234104   Change is   -0.000104796091872
 Root      5 :     5.559559721946056   Change is   -0.000112439590113
 Root      6 :     6.017012635790882   Change is   -0.000119751292679
 Iteration     6 Dimension    66 NMult    54 NNew     12
 CISAX will form    12 AO SS matrices at one time.
 NMat=    12 NSing=    12 JSym2X= 0.
 Root      1 not converged, maximum delta is    0.000083984596347
 Root      2 not converged, maximum delta is    0.000024964929709
 Root      3 not converged, maximum delta is    0.000025272336858
 Root      4 not converged, maximum delta is    0.000301989970188
 Root      5 not converged, maximum delta is    0.000417072328247
 Root      6 not converged, maximum delta is    0.000949998796959
 Excitation Energies [eV] at current iteration:
 Root      1 :     3.422155931982497   Change is   -0.000001989687722
 Root      2 :     4.075189952523357   Change is   -0.000000118057177
 Root      3 :     4.221862907097465   Change is   -0.000000116956410
 Root      4 :     5.082781832303945   Change is   -0.000010255930159
 Root      5 :     5.559545030219481   Change is   -0.000014691726574
 Root      6 :     6.016997165842729   Change is   -0.000015469948154
 Iteration     7 Dimension    78 NMult    66 NNew     12
 CISAX will form    12 AO SS matrices at one time.
 NMat=    12 NSing=    12 JSym2X= 0.
 Root      1 not converged, maximum delta is    0.000009801795755
 Root      2 not converged, maximum delta is    0.000004193953589
 Root      3 not converged, maximum delta is    0.000006705570704
 Root      4 not converged, maximum delta is    0.000109014196081
 Root      5 not converged, maximum delta is    0.000145499793206
 Root      6 not converged, maximum delta is    0.000114959361443
 Excitation Energies [eV] at current iteration:
 Root      1 :     3.422155855721011   Change is   -0.000000076261485
 Root      2 :     4.075189947392778   Change is   -0.000000005130579
 Root      3 :     4.221862900073499   Change is   -0.000000007023967
 Root      4 :     5.082780779250923   Change is   -0.000001053053022
 Root      5 :     5.559543383744203   Change is   -0.000001646475278
 Root      6 :     6.016995639479567   Change is   -0.000001526363162
 Iteration     8 Dimension    90 NMult    78 NNew     12
 CISAX will form    12 AO SS matrices at one time.
 NMat=    12 NSing=    12 JSym2X= 0.
 Root      1 not converged, maximum delta is    0.000002744777200
 Root      2 not converged, maximum delta is    0.000001448657902
 Root      3 not converged, maximum delta is    0.000001026448298
 Root      4 not converged, maximum delta is    0.000028217927246
 Root      5 not converged, maximum delta is    0.000046406090799
 Root      6 not converged, maximum delta is    0.000037864134516
 Excitation Energies [eV] at current iteration:
 Root      1 :     3.422155852052662   Change is   -0.000000003668349
 Root      2 :     4.075189947123250   Change is   -0.000000000269527
 Root      3 :     4.221862899667726   Change is   -0.000000000405774
 Root      4 :     5.082780703278408   Change is   -0.000000075972515
 Root      5 :     5.559543225535411   Change is   -0.000000158208792
 Root      6 :     6.016995483141045   Change is   -0.000000156338522
 Iteration     9 Dimension   102 NMult    90 NNew     12
 CISAX will form    12 AO SS matrices at one time.
 NMat=    12 NSing=    12 JSym2X= 0.
 Root      1 has converged.
 Root      2 has converged.
 Root      3 has converged.
 Root      4 not converged, maximum delta is    0.000005776757317
 Root      5 not converged, maximum delta is    0.000011457899100
 Root      6 not converged, maximum delta is    0.000020856672996
 Excitation Energies [eV] at current iteration:
 Root      1 :     3.422155851924840   Change is   -0.000000000127822
 Root      2 :     4.075189947110642   Change is   -0.000000000012608
 Root      3 :     4.221862899646131   Change is   -0.000000000021595
 Root      4 :     5.082780698027866   Change is   -0.000000005250542
 Root      5 :     5.559543212415211   Change is   -0.000000013120200
 Root      6 :     6.016995465074315   Change is   -0.000000018066730
 Iteration    10 Dimension   108 NMult   102 NNew      6
 CISAX will form     6 AO SS matrices at one time.
 NMat=     6 NSing=     6 JSym2X= 0.
 Root      1 has converged.
 Root      2 has converged.
 Root      3 has converged.
 Root      4 not converged, maximum delta is    0.000001219411704
 Root      5 not converged, maximum delta is    0.000002525016035
 Root      6 not converged, maximum delta is    0.000007185144929
 Excitation Energies [eV] at current iteration:
 Root      1 :     3.422155851924479   Change is   -0.000000000000360
 Root      2 :     4.075189947110522   Change is   -0.000000000000121
 Root      3 :     4.221862899645956   Change is   -0.000000000000175
 Root      4 :     5.082780697758088   Change is   -0.000000000269778
 Root      5 :     5.559543211555422   Change is   -0.000000000859790
 Root      6 :     6.016995463081563   Change is   -0.000000001992752
 Iteration    11 Dimension   114 NMult   108 NNew      6
 CISAX will form     6 AO SS matrices at one time.
 NMat=     6 NSing=     6 JSym2X= 0.
 Root      1 has converged.
 Root      2 has converged.
 Root      3 has converged.
 Root      4 has converged.
 Root      5 has converged.
 Root      6 not converged, maximum delta is    0.000001650657006
 Excitation Energies [eV] at current iteration:
 Root      1 :     3.422155851924288   Change is   -0.000000000000192
 Root      2 :     4.075189947110461   Change is   -0.000000000000061
 Root      3 :     4.221862899645781   Change is   -0.000000000000175
 Root      4 :     5.082780697742319   Change is   -0.000000000015769
 Root      5 :     5.559543211496127   Change is   -0.000000000059295
 Root      6 :     6.016995462891927   Change is   -0.000000000189636
 Iteration    12 Dimension   116 NMult   114 NNew      2
 CISAX will form     2 AO SS matrices at one time.
 NMat=     2 NSing=     2 JSym2X= 0.
 Root      1 has converged.
 Root      2 has converged.
 Root      3 has converged.
 Root      4 has converged.
 Root      5 has converged.
 Root      6 has converged.
 Excitation Energies [eV] at current iteration:
 Root      1 :     3.422155851924288   Change is    0.000000000000000
 Root      2 :     4.075189947110501   Change is    0.000000000000041
 Root      3 :     4.221862899645741   Change is   -0.000000000000039
 Root      4 :     5.082780697742287   Change is   -0.000000000000032
 Root      5 :     5.559543211496053   Change is   -0.000000000000074
 Root      6 :     6.016995462875382   Change is   -0.000000000016545
 Convergence achieved on expansion vectors.
 ***********************************************************************
 Excited states from <AA,BB:AA,BB> singles matrix:
 ***********************************************************************
 
 1PDM for each excited state written to RWF  633
 Ground to excited state transition densities written to RWF  633
 Ground to excited state transition electric dipole moments (Au):
       state          X           Y           Z        Dip. S.      Osc.
         1        -1.6102      0.1969      0.0502      2.6341      0.2208
         2        -0.1540     -0.0099      0.0453      0.0259      0.0026
         3        -0.0080      0.1468     -0.0363      0.0229      0.0024
         4        -0.1967     -1.7636      0.1327      3.1666      0.3943
         5        -0.0589     -1.4724      0.0266      2.1720      0.2958
         6         0.0297      0.2376      0.0707      0.0623      0.0092
 Ground to excited state transition velocity dipole moments (Au):
       state          X           Y           Z        Dip. S.      Osc.
         1         0.1944     -0.0200     -0.0071      0.0382      0.2026
         2         0.0222      0.0018     -0.0040      0.0005      0.0023
         3         0.0014     -0.0213      0.0021      0.0005      0.0020
         4         0.0390      0.3158     -0.0200      0.1016      0.3628
         5         0.0124      0.2954     -0.0063      0.0874      0.2853
         6        -0.0072     -0.0490     -0.0349      0.0037      0.0111
 Ground to excited state transition magnetic dipole moments (Au):
       state          X           Y           Z
         1        -0.0835      0.0133     -1.4369
         2         0.8078     -0.1407     -0.3528
         3         0.1620     -1.0008     -0.1847
         4         0.0664     -0.1082      0.0846
         5         0.2001     -0.1068      0.2887
         6        -0.0399     -0.0109      0.0144
 Ground to excited state transition velocity quadrupole moments (Au):
       state          XX          YY          ZZ          XY          XZ          YZ
         1        -0.1741      0.1013      0.0012     -0.5466      0.0608      0.0124
         2         0.0020     -0.0060      0.0014     -0.0599      0.0191      0.0862
         3         0.0096     -0.0086      0.0288     -0.0515      0.0655      0.0085
         4        -1.2859      0.3096     -0.0052      0.0879      0.0903     -0.0572
         5        -0.5224      0.2655      0.0525      0.2246      0.0706      0.0376
         6        -0.2399     -0.2132      0.1865      0.0151      0.0348      0.0374
 <0|del|b> * <b|rxdel|0> + <0|del|b> * <b|delr+rdel|0>
 Rotatory Strengths (R) in cgs (10**-40 erg-esu-cm/Gauss)
       state          XX          YY          ZZ    R(velocity)    E-M Angle
         1        42.3843    -21.0361    -56.5585    -11.7368       91.27
         2         3.2275     49.5246     37.2471     29.9998       18.99
         3        50.6251     -0.1241     45.8866     32.1292       16.97
         4      -125.1818      0.8045     -1.5428    -41.9734      133.16
         5       -96.2912      4.3845    -15.0040    -35.6369      106.53
         6         1.9323      0.0656     -0.9895      0.3361       83.17
 1/2[<0|r|b>*<b|rxdel|0> + (<0|rxdel|b>*<b|r|0>)*]
 Rotatory Strengths (R) in cgs (10**-40 erg-esu-cm/Gauss)
       state          XX          YY          ZZ     R(length)
         1       -95.0693     -1.8503     50.9976    -15.3073
         2        87.9490     -0.9806     11.3006     32.7563
         3         0.9163    103.8630     -4.7417     33.3458
         4         9.2414   -134.8872     -7.9374    -44.5277
         5         8.3421   -111.1626     -5.4264    -36.0823
         6         0.8370      1.8297     -0.7223      0.6482
  1/2[<0|del|b>*<b|r|0> + (<0|r|b>*<b|del|0>)*] (Au)
       state          X           Y           Z        Dip. S.   Osc.(frdel)
         1        -0.3130     -0.0039     -0.0004      0.3173      0.2115
         2        -0.0034     -0.0000     -0.0002      0.0036      0.0024
         3        -0.0000     -0.0031     -0.0001      0.0032      0.0021
         4        -0.0077     -0.5569     -0.0027      0.5673      0.3782
         5        -0.0007     -0.4349     -0.0002      0.4358      0.2905
         6        -0.0002     -0.0116     -0.0025      0.0143      0.0095

 Excitation energies and oscillator strengths:
 
 Excited State   1:      Singlet-A      3.4222 eV  362.30 nm  f=0.2208  <S**2>=0.000
      52 -> 53         0.69866
 This state for optimization and/or second-order correction.
 Total Energy, E(TD-HF/TD-DFT) =  -633.202950803    
 Copying the excited state density for this state as the 1-particle RhoCI density.
 
 Excited State   2:      Singlet-A      4.0752 eV  304.24 nm  f=0.0026  <S**2>=0.000
      50 -> 54         0.19232
      51 -> 53         0.56254
      51 -> 54         0.33086
 
 Excited State   3:      Singlet-A      4.2219 eV  293.67 nm  f=0.0024  <S**2>=0.000
      49 -> 53         0.20541
      49 -> 54        -0.14223
      50 -> 53         0.53651
      50 -> 54        -0.26352
      50 -> 58         0.11273
      51 -> 54         0.20914
 
 Excited State   4:      Singlet-A      5.0828 eV  243.93 nm  f=0.3943  <S**2>=0.000
      52 -> 54         0.69268
 
 Excited State   5:      Singlet-A      5.5595 eV  223.01 nm  f=0.2958  <S**2>=0.000
      49 -> 53         0.62805
      50 -> 53        -0.24048
      51 -> 53         0.13754
 
 Excited State   6:      Singlet-A      6.0170 eV  206.06 nm  f=0.0092  <S**2>=0.000
      52 -> 55         0.65960
      52 -> 56         0.14546
 SavETr:  write IOETrn=   770 NScale= 10 NData=  16 NLR=1 NState=    6 LETran=     118.
 The selected state is a singlet.
 CISGrd: IGrad=1 NXY=2 DFT=T
 CISAX will form     1 AO SS matrices at one time.
 NMat=     1 NSing=     1 JSym2X= 0.
 Leave Link  914 at Fri Jan 23 21:45:01 2026, MaxMem=  2147483648 cpu:            7791.8 elap:             488.7
 (Enter /data/home/wyx/g16/l1002.exe)
 Minotr:  Closed shell wavefunction.
          Computing CIS/TDA/TD derivatives.
          Using Z-Vector for PSCF gradient.
          Skipping F1 and S1 gradient terms here.
 NEqPCM:  Using equilibrium solvation (IEInf=0, Eps=   7.4257, EpsInf=   1.9740)
          Frozen-core window.
          Direct CPHF calculation.
          Differentiating once with respect to electric field.
                with respect to dipole field.
          Electric field/nuclear overlap derivatives assumed to be zero.
          Requested convergence is 1.0D-10 RMS, and 1.0D-09 maximum.
          NewPWx=F KeepS1=T KeepF1=T KeepIn=T MapXYZ=F SortEE=F KeepMc=T.
 Two-electron integral symmetry used by symmetrizing perturbed Fock matrices.
          MDV=    2147483648 using IRadAn=       5.
          Solving linear equations separately, MaxMat=     384.
          There are     1 degrees of freedom in the 1st order CPHF.  IDoFFX=0 NUNeed=     1.
 FoFJK:  IHMeth= 1 ICntrl=       0 DoSepK=T KAlg= 0 I1Cent=           0 FoldK=F
 IRaf=         1 NMat=       1 IRICut=       1 DoRegI=T DoRafI=F ISym2E=-1 IDoP0=0 IntGTp=1.
 FoFCou: FMM=F IPFlag=           0 FMFlag=      100000 FMFlg1=           0
         NFxFlg=           0 DoJE=T BraDBF=F KetDBF=F FulRan=T
         wScrn=  0.000000 ICntrl=       500 IOpCl=  0 I1Cent=           0 NGrid=           0
         NMat0=    1 NMatS0=      1 NMatT0=    0 NMatD0=    1 NMtDS0=    0 NMtDT0=    0
 Petite list used in FoFCou.
 LinEq1:  Iter=  0 NonCon=     1 RMS=3.57D-03 Max=1.71D-01 NDo=     1
 AX will form     1 AO Fock derivatives at one time.
 LinEq1:  Iter=  1 NonCon=     1 RMS=1.45D-03 Max=8.23D-02 NDo=     1
 LinEq1:  Iter=  2 NonCon=     1 RMS=7.20D-04 Max=3.69D-02 NDo=     1
 LinEq1:  Iter=  3 NonCon=     1 RMS=3.84D-04 Max=1.83D-02 NDo=     1
 LinEq1:  Iter=  4 NonCon=     1 RMS=1.76D-04 Max=6.50D-03 NDo=     1
 LinEq1:  Iter=  5 NonCon=     1 RMS=8.96D-05 Max=3.21D-03 NDo=     1
 LinEq1:  Iter=  6 NonCon=     1 RMS=5.77D-05 Max=2.37D-03 NDo=     1
 LinEq1:  Iter=  7 NonCon=     1 RMS=2.45D-05 Max=1.41D-03 NDo=     1
 LinEq1:  Iter=  8 NonCon=     1 RMS=1.10D-05 Max=4.05D-04 NDo=     1
 LinEq1:  Iter=  9 NonCon=     1 RMS=5.34D-06 Max=2.03D-04 NDo=     1
 LinEq1:  Iter= 10 NonCon=     1 RMS=2.65D-06 Max=6.83D-05 NDo=     1
 LinEq1:  Iter= 11 NonCon=     1 RMS=1.71D-06 Max=5.37D-05 NDo=     1
 LinEq1:  Iter= 12 NonCon=     1 RMS=8.05D-07 Max=1.47D-05 NDo=     1
 LinEq1:  Iter= 13 NonCon=     1 RMS=2.99D-07 Max=5.92D-06 NDo=     1
 LinEq1:  Iter= 14 NonCon=     1 RMS=1.23D-07 Max=2.97D-06 NDo=     1
 LinEq1:  Iter= 15 NonCon=     1 RMS=6.86D-08 Max=1.79D-06 NDo=     1
 LinEq1:  Iter= 16 NonCon=     1 RMS=2.21D-08 Max=6.31D-07 NDo=     1
 LinEq1:  Iter= 17 NonCon=     1 RMS=6.72D-09 Max=2.45D-07 NDo=     1
 LinEq1:  Iter= 18 NonCon=     1 RMS=3.53D-09 Max=1.05D-07 NDo=     1
 LinEq1:  Iter= 19 NonCon=     1 RMS=1.41D-09 Max=5.26D-08 NDo=     1
 LinEq1:  Iter= 20 NonCon=     1 RMS=4.64D-10 Max=1.31D-08 NDo=     1
 LinEq1:  Iter= 21 NonCon=     1 RMS=2.05D-10 Max=3.85D-09 NDo=     1
 LinEq1:  Iter= 22 NonCon=     1 RMS=7.41D-11 Max=1.77D-09 NDo=     1
 LinEq1:  Iter= 23 NonCon=     0 RMS=1.82D-11 Max=4.87D-10 NDo=     1
 Linear equations converged to 1.000D-10 1.000D-09 after    23 iterations.
 PCM Corrected Linear-Response - Equilibrium solvation:
 Corrected transition energy               =    3.5178          eV
 Total energy after correction             = -633.199434111     a.u.
 NEqPCM:  Using non-equilibrium solvation (IEInf=1, Eps=   7.4257, EpsInf=   1.9740)
 Inv3:  Mode=1 IEnd=    13267827.
 Iteration    1 A*A^-1 deviation from unit magnitude is 2.89D-15 for    323.
 Iteration    1 A*A^-1 deviation from orthogonality  is 1.66D-15 for   1799    636.
 Iteration    1 A^-1*A deviation from unit magnitude is 2.66D-15 for    189.
 Iteration    1 A^-1*A deviation from orthogonality  is 1.87D-15 for   1532   1122.
 NEqSol: Computing the dynamic-inertial partition of the PCM polarization charges.
 End of Minotr F.D. properties file   721 does not exist.
 End of Minotr F.D. properties file   722 does not exist.
 End of Minotr F.D. properties file   788 does not exist.
 Leave Link 1002 at Fri Jan 23 21:47:03 2026, MaxMem=  2147483648 cpu:            1896.7 elap:             119.5
 (Enter /data/home/wyx/g16/l601.exe)
 Copying SCF densities to generalized density rwf, IOpCl= 0 IROHF=0.

 **********************************************************************

            Population analysis using the CI density.

 **********************************************************************

 Orbital symmetries:
       Occupied  (A) (A) (A) (A) (A) (A) (A) (A) (A) (A) (A) (A)
                 (A) (A) (A) (A) (A) (A) (A) (A) (A) (A) (A) (A)
                 (A) (A) (A) (A) (A) (A) (A) (A) (A) (A) (A) (A)
                 (A) (A) (A) (A) (A) (A) (A) (A) (A) (A) (A) (A)
                 (A) (A) (A) (A)
       Virtual   (A) (A) (A) (A) (A) (A) (A) (A) (A) (A) (A) (A)
                 (A) (A) (A) (A) (A) (A) (A) (A) (A) (A) (A) (A)
                 (A) (A) (A) (A) (A) (A) (A) (A) (A) (A) (A) (A)
                 (A) (A) (A) (A) (A) (A) (A) (A) (A) (A) (A) (A)
                 (A) (A) (A) (A) (A) (A) (A) (A) (A) (A) (A) (A)
                 (A) (A) (A) (A) (A) (A) (A) (A) (A) (A) (A) (A)
                 (A) (A) (A) (A) (A) (A) (A) (A) (A) (A) (A) (A)
                 (A) (A) (A) (A) (A) (A) (A) (A) (A) (A) (A) (A)
                 (A) (A) (A) (A) (A) (A) (A) (A) (A) (A) (A) (A)
                 (A) (A) (A) (A) (A) (A) (A) (A) (A) (A) (A) (A)
                 (A) (A) (A) (A) (A) (A) (A) (A) (A) (A) (A) (A)
                 (A) (A) (A) (A) (A) (A) (A) (A) (A) (A) (A) (A)
                 (A) (A) (A) (A) (A) (A) (A) (A) (A) (A) (A) (A)
                 (A) (A) (A) (A) (A) (A) (A) (A) (A) (A) (A) (A)
                 (A) (A) (A) (A) (A) (A) (A) (A) (A) (A) (A) (A)
                 (A) (A) (A) (A) (A) (A) (A) (A) (A) (A) (A) (A)
                 (A) (A) (A) (A) (A) (A) (A) (A) (A) (A) (A) (A)
                 (A) (A) (A) (A) (A) (A) (A) (A) (A) (A) (A) (A)
                 (A) (A) (A) (A) (A) (A) (A) (A) (A) (A) (A) (A)
                 (A) (A) (A) (A) (A) (A) (A) (A) (A) (A) (A) (A)
                 (A) (A) (A) (A) (A) (A) (A) (A) (A) (A) (A) (A)
                 (A) (A) (A) (A) (A) (A) (A) (A) (A) (A) (A) (A)
                 (A) (A) (A) (A) (A) (A) (A) (A) (A) (A) (A) (A)
                 (A) (A) (A) (A) (A) (A) (A) (A) (A) (A) (A) (A)
                 (A) (A) (A) (A) (A) (A) (A) (A) (A) (A) (A) (A)
                 (A) (A) (A) (A)
 The electronic state is 1-A.
 Alpha  occ. eigenvalues --  -19.17868 -19.17304 -14.44158 -10.33439 -10.32994
 Alpha  occ. eigenvalues --  -10.32075 -10.31496 -10.25954 -10.25094 -10.24817
 Alpha  occ. eigenvalues --  -10.24759 -10.24503 -10.24273 -10.23680  -1.11998
 Alpha  occ. eigenvalues --   -1.11516  -1.07581  -0.91262  -0.90267  -0.83843
 Alpha  occ. eigenvalues --   -0.82552  -0.81613  -0.78511  -0.74001  -0.71229
 Alpha  occ. eigenvalues --   -0.68583  -0.61565  -0.58219  -0.56798  -0.55177
 Alpha  occ. eigenvalues --   -0.54561  -0.53991  -0.52589  -0.51912  -0.50783
 Alpha  occ. eigenvalues --   -0.49976  -0.49517  -0.49149  -0.48624  -0.48140
 Alpha  occ. eigenvalues --   -0.46906  -0.45329  -0.45121  -0.43481  -0.43088
 Alpha  occ. eigenvalues --   -0.42374  -0.42085  -0.41971  -0.32793  -0.32212
 Alpha  occ. eigenvalues --   -0.31205  -0.26074
 Alpha virt. eigenvalues --   -0.02308   0.02517   0.06297   0.08080   0.08514
 Alpha virt. eigenvalues --    0.10034   0.10730   0.11923   0.12612   0.13511
 Alpha virt. eigenvalues --    0.14195   0.14866   0.15623   0.16105   0.16901
 Alpha virt. eigenvalues --    0.17508   0.17840   0.17920   0.18142   0.19185
 Alpha virt. eigenvalues --    0.19909   0.22069   0.22693   0.23431   0.23653
 Alpha virt. eigenvalues --    0.23922   0.24831   0.25566   0.25971   0.26437
 Alpha virt. eigenvalues --    0.26885   0.27338   0.28826   0.29070   0.30125
 Alpha virt. eigenvalues --    0.31627   0.31953   0.32685   0.33583   0.34317
 Alpha virt. eigenvalues --    0.35345   0.35900   0.36737   0.38058   0.38886
 Alpha virt. eigenvalues --    0.40080   0.40923   0.41691   0.42203   0.42684
 Alpha virt. eigenvalues --    0.43975   0.44258   0.45456   0.46018   0.46216
 Alpha virt. eigenvalues --    0.47233   0.47676   0.48013   0.48283   0.49002
 Alpha virt. eigenvalues --    0.49445   0.50384   0.50708   0.51341   0.51655
 Alpha virt. eigenvalues --    0.52846   0.53135   0.53373   0.54204   0.54357
 Alpha virt. eigenvalues --    0.54529   0.55886   0.56177   0.56605   0.58167
 Alpha virt. eigenvalues --    0.58661   0.59028   0.60653   0.61112   0.62487
 Alpha virt. eigenvalues --    0.63278   0.65648   0.66015   0.66467   0.67951
 Alpha virt. eigenvalues --    0.68607   0.70117   0.71171   0.72281   0.73049
 Alpha virt. eigenvalues --    0.73390   0.73789   0.74874   0.76078   0.77705
 Alpha virt. eigenvalues --    0.78204   0.79802   0.82010   0.84308   0.84620
 Alpha virt. eigenvalues --    0.89435   0.93302   0.99423   1.00702   1.24505
 Alpha virt. eigenvalues --    1.25685   1.27146   1.27608   1.29363   1.31554
 Alpha virt. eigenvalues --    1.32451   1.33043   1.34060   1.35052   1.35957
 Alpha virt. eigenvalues --    1.36508   1.37176   1.38167   1.39209   1.39895
 Alpha virt. eigenvalues --    1.40016   1.40226   1.41086   1.41592   1.41752
 Alpha virt. eigenvalues --    1.43247   1.44113   1.44638   1.45148   1.46976
 Alpha virt. eigenvalues --    1.48104   1.49015   1.49625   1.50482   1.51104
 Alpha virt. eigenvalues --    1.52235   1.52369   1.53859   1.54484   1.57680
 Alpha virt. eigenvalues --    1.58254   1.60536   1.60710   1.61296   1.62215
 Alpha virt. eigenvalues --    1.62616   1.63380   1.64182   1.65184   1.65620
 Alpha virt. eigenvalues --    1.67011   1.67389   1.67721   1.68184   1.68607
 Alpha virt. eigenvalues --    1.68731   1.69873   1.70526   1.72122   1.72272
 Alpha virt. eigenvalues --    1.73329   1.75162   1.76056   1.76701   1.78817
 Alpha virt. eigenvalues --    1.79951   1.83148   1.84335   1.86043   1.86528
 Alpha virt. eigenvalues --    1.86927   1.87343   1.88535   1.88987   1.90775
 Alpha virt. eigenvalues --    1.91380   1.94455   1.95190   1.98214   1.99651
 Alpha virt. eigenvalues --    2.00867   2.03773   2.04515   2.06375   2.09423
 Alpha virt. eigenvalues --    2.11239   2.12901   2.14444   2.16693   2.19448
 Alpha virt. eigenvalues --    2.20290   2.21237   2.21834   2.22663   2.25969
 Alpha virt. eigenvalues --    2.26961   2.27358   2.28981   2.30590   2.31407
 Alpha virt. eigenvalues --    2.33089   2.34616   2.36270   2.36695   2.37950
 Alpha virt. eigenvalues --    2.39468   2.40153   2.41576   2.43743   2.44780
 Alpha virt. eigenvalues --    2.45891   2.47736   2.50205   2.50436   2.51730
 Alpha virt. eigenvalues --    2.52744   2.53566   2.54931   2.56758   2.58714
 Alpha virt. eigenvalues --    2.58955   2.60039   2.60984   2.61686   2.62632
 Alpha virt. eigenvalues --    2.64427   2.65631   2.66924   2.67594   2.69085
 Alpha virt. eigenvalues --    2.70777   2.72021   2.72743   2.73604   2.74881
 Alpha virt. eigenvalues --    2.76069   2.76491   2.77390   2.78052   2.79447
 Alpha virt. eigenvalues --    2.80698   2.81430   2.83136   2.83501   2.84563
 Alpha virt. eigenvalues --    2.85564   2.86077   2.87760   2.90332   2.91742
 Alpha virt. eigenvalues --    2.97791   3.00079   3.00980   3.03872   3.10276
 Alpha virt. eigenvalues --    3.12187   3.15659   3.16596   3.16823   3.20332
 Alpha virt. eigenvalues --    3.21032   3.22222   3.25054   3.26491   3.27066
 Alpha virt. eigenvalues --    3.27669   3.29586   3.33381   3.34770   3.36593
 Alpha virt. eigenvalues --    3.37036   3.38731   3.39825   3.40249   3.41557
 Alpha virt. eigenvalues --    3.42580   3.44728   3.45473   3.46625   3.47966
 Alpha virt. eigenvalues --    3.48629   3.49364   3.55157   3.58224   3.59698
 Alpha virt. eigenvalues --    3.60432   3.89926   3.99469   4.34417   4.36276
 Alpha virt. eigenvalues --   21.63624  21.79396  22.08324  22.11006  22.11711
 Alpha virt. eigenvalues --   22.14553  22.15253  22.18209  22.20978  22.24858
 Alpha virt. eigenvalues --   22.30340  31.93052  43.63010  43.65478
          Condensed to atoms (all electrons):
               1          2          3          4          5          6
     1  O    7.996307  -0.000000  -0.000289   0.000019   0.021101   0.025615
     2  O   -0.000000   8.002629   0.000235   0.000039  -0.209039   0.000789
     3  N   -0.000289   0.000235   6.213121   0.368182  -0.088152   0.349353
     4  H    0.000019   0.000039   0.368182   0.401002   0.016733  -0.043895
     5  C    0.021101  -0.209039  -0.088152   0.016733   7.207881   0.016674
     6  C    0.025615   0.000789   0.349353  -0.043895   0.016674   6.054751
     7  C   -0.000677  -0.023208   0.409568  -0.038893   0.071019  -0.203004
     8  C   -0.000050   0.689461   0.004513  -0.000409  -0.248172   0.028231
     9  C   -0.031961   0.018078   0.004248  -0.001125  -0.481424  -0.193942
    10  H    0.018520  -0.000179  -0.001276   0.000024  -0.083074   0.018550
    11  H    0.001760   0.000057   0.001098   0.000043  -0.018293  -0.008291
    12  C   -0.240143  -0.001708  -0.050821   0.014497   0.031278  -0.418936
    13  C    0.690515  -0.000016  -0.000137   0.000611   0.084347   0.160047
    14  C   -0.000004  -0.012147  -0.040759  -0.009578  -0.084925   0.013676
    15  H   -0.000000   0.004529   0.003182   0.001717   0.021672   0.006437
    16  H   -0.000000  -0.000932   0.000832   0.000750   0.000210  -0.000698
    17  H    0.000000  -0.000326  -0.002291   0.000907  -0.011219  -0.001151
    18  C   -0.000058  -0.106011  -0.000653   0.000021  -0.295834  -0.000339
    19  H   -0.000001   0.010191   0.000004  -0.000001   0.026156   0.000027
    20  H    0.000113   0.003542   0.000106   0.000001   0.041670  -0.001053
    21  H   -0.000133   0.002321   0.000009  -0.000001   0.007166   0.000262
    22  C   -0.111115   0.000000   0.000325   0.000130   0.005110  -0.002900
    23  H    0.002089   0.000000   0.000047  -0.000016  -0.000114   0.015911
    24  H    0.004994  -0.000000  -0.000157  -0.000057  -0.000725  -0.034993
    25  H    0.010066  -0.000000   0.000008  -0.000003  -0.000140  -0.002041
    26  C    0.000798   0.000001  -0.038620  -0.006860  -0.001373   0.174157
    27  H   -0.000068   0.000000  -0.002378   0.000526   0.000762  -0.053185
    28  H   -0.000372  -0.000000   0.002340   0.000801  -0.000263  -0.058035
    29  H    0.000017   0.000000   0.001710   0.001287  -0.000678  -0.057321
               7          8          9         10         11         12
     1  O   -0.000677  -0.000050  -0.031961   0.018520   0.001760  -0.240143
     2  O   -0.023208   0.689461   0.018078  -0.000179   0.000057  -0.001708
     3  N    0.409568   0.004513   0.004248  -0.001276   0.001098  -0.050821
     4  H   -0.038893  -0.000409  -0.001125   0.000024   0.000043   0.014497
     5  C    0.071019  -0.248172  -0.481424  -0.083074  -0.018293   0.031278
     6  C   -0.203004   0.028231  -0.193942   0.018550  -0.008291  -0.418936
     7  C    5.901205  -0.221785  -0.179662   0.015930  -0.003957   0.021821
     8  C   -0.221785   5.441917   0.112577  -0.006815  -0.000273  -0.036061
     9  C   -0.179662   0.112577   6.491705   0.495847   0.344408   0.009088
    10  H    0.015930  -0.006815   0.495847   0.456567  -0.021209  -0.107130
    11  H   -0.003957  -0.000273   0.344408  -0.021209   0.482783   0.010284
    12  C    0.021821  -0.036061   0.009088  -0.107130   0.010284   7.531593
    13  C    0.009751  -0.005952  -0.270068   0.007962  -0.001419  -0.395158
    14  C    0.268326  -0.035678   0.010622   0.000333  -0.000686  -0.004079
    15  H   -0.078143   0.006743  -0.000152   0.000001   0.000039  -0.001486
    16  H   -0.036198  -0.007171  -0.000893  -0.000054   0.000149   0.000137
    17  H   -0.038193  -0.000441   0.001326   0.000065  -0.000049   0.000178
    18  C    0.007505   0.294527  -0.006060   0.005179  -0.007076  -0.006286
    19  H    0.001447  -0.049900  -0.001237   0.000567  -0.000074  -0.000489
    20  H    0.001813  -0.063568  -0.007672  -0.003632  -0.000320   0.006801
    21  H   -0.000507  -0.038532  -0.009983  -0.002688   0.000998  -0.001048
    22  C   -0.000510  -0.000020  -0.002897   0.001806   0.001061  -0.287380
    23  H   -0.000016   0.000003  -0.003512  -0.000122   0.000060  -0.012587
    24  H    0.000080  -0.000012   0.003790  -0.000169  -0.000110   0.073541
    25  H    0.000035   0.000006   0.001658  -0.000145  -0.000011   0.025498
    26  C    0.005785   0.000276   0.020433  -0.000057  -0.000465  -0.073378
    27  H    0.000148  -0.000038  -0.001822   0.000014  -0.000025  -0.017227
    28  H   -0.000487   0.000004   0.001372   0.000012   0.000011   0.000281
    29  H    0.003930   0.000013  -0.000694   0.000000   0.000050   0.024201
              13         14         15         16         17         18
     1  O    0.690515  -0.000004  -0.000000  -0.000000   0.000000  -0.000058
     2  O   -0.000016  -0.012147   0.004529  -0.000932  -0.000326  -0.106011
     3  N   -0.000137  -0.040759   0.003182   0.000832  -0.002291  -0.000653
     4  H    0.000611  -0.009578   0.001717   0.000750   0.000907   0.000021
     5  C    0.084347  -0.084925   0.021672   0.000210  -0.011219  -0.295834
     6  C    0.160047   0.013676   0.006437  -0.000698  -0.001151  -0.000339
     7  C    0.009751   0.268326  -0.078143  -0.036198  -0.038193   0.007505
     8  C   -0.005952  -0.035678   0.006743  -0.007171  -0.000441   0.294527
     9  C   -0.270068   0.010622  -0.000152  -0.000893   0.001326  -0.006060
    10  H    0.007962   0.000333   0.000001  -0.000054   0.000065   0.005179
    11  H   -0.001419  -0.000686   0.000039   0.000149  -0.000049  -0.007076
    12  C   -0.395158  -0.004079  -0.001486   0.000137   0.000178  -0.006286
    13  C    5.508441  -0.000111  -0.000019   0.000007  -0.000049   0.000647
    14  C   -0.000111   5.048720   0.380485   0.425013   0.422397   0.001856
    15  H   -0.000019   0.380485   0.590578  -0.027655  -0.027438   0.000358
    16  H    0.000007   0.425013  -0.027655   0.514798  -0.030184  -0.000070
    17  H   -0.000049   0.422397  -0.027438  -0.030184   0.527365  -0.000284
    18  C    0.000647   0.001856   0.000358  -0.000070  -0.000284   5.417509
    19  H   -0.000028   0.000043  -0.000008  -0.000000   0.000006   0.381639
    20  H    0.000399   0.000101  -0.000022  -0.000066   0.000014   0.375586
    21  H    0.000203  -0.000392  -0.000007   0.000049  -0.000048   0.398709
    22  C    0.289064  -0.000019   0.000002  -0.000000   0.000000   0.000014
    23  H   -0.029999  -0.000001   0.000000   0.000000  -0.000000  -0.000002
    24  H   -0.094986  -0.000001   0.000000   0.000000   0.000000   0.000003
    25  H   -0.039220   0.000001   0.000000  -0.000000   0.000000   0.000001
    26  C   -0.047192   0.000829   0.000266   0.000049  -0.000171   0.000029
    27  H    0.006059  -0.000381   0.000010   0.000010  -0.000054  -0.000001
    28  H   -0.003166   0.000102  -0.000010  -0.000003   0.000006   0.000000
    29  H   -0.000319   0.000080   0.000057  -0.000010   0.000014   0.000000
              19         20         21         22         23         24
     1  O   -0.000001   0.000113  -0.000133  -0.111115   0.002089   0.004994
     2  O    0.010191   0.003542   0.002321   0.000000   0.000000  -0.000000
     3  N    0.000004   0.000106   0.000009   0.000325   0.000047  -0.000157
     4  H   -0.000001   0.000001  -0.000001   0.000130  -0.000016  -0.000057
     5  C    0.026156   0.041670   0.007166   0.005110  -0.000114  -0.000725
     6  C    0.000027  -0.001053   0.000262  -0.002900   0.015911  -0.034993
     7  C    0.001447   0.001813  -0.000507  -0.000510  -0.000016   0.000080
     8  C   -0.049900  -0.063568  -0.038532  -0.000020   0.000003  -0.000012
     9  C   -0.001237  -0.007672  -0.009983  -0.002897  -0.003512   0.003790
    10  H    0.000567  -0.003632  -0.002688   0.001806  -0.000122  -0.000169
    11  H   -0.000074  -0.000320   0.000998   0.001061   0.000060  -0.000110
    12  C   -0.000489   0.006801  -0.001048  -0.287380  -0.012587   0.073541
    13  C   -0.000028   0.000399   0.000203   0.289064  -0.029999  -0.094986
    14  C    0.000043   0.000101  -0.000392  -0.000019  -0.000001  -0.000001
    15  H   -0.000008  -0.000022  -0.000007   0.000002   0.000000   0.000000
    16  H   -0.000000  -0.000066   0.000049  -0.000000   0.000000   0.000000
    17  H    0.000006   0.000014  -0.000048   0.000000  -0.000000   0.000000
    18  C    0.381639   0.375586   0.398709   0.000014  -0.000002   0.000003
    19  H    0.511454  -0.018819  -0.012055  -0.000001  -0.000000   0.000000
    20  H   -0.018819   0.546761  -0.029295   0.000012  -0.000000  -0.000000
    21  H   -0.012055  -0.029295   0.519430  -0.000001   0.000001  -0.000000
    22  C   -0.000001   0.000012  -0.000001   5.467385   0.403272   0.392291
    23  H   -0.000000  -0.000000   0.000001   0.403272   0.511870  -0.028103
    24  H    0.000000  -0.000000  -0.000000   0.392291  -0.028103   0.550669
    25  H    0.000000   0.000000  -0.000002   0.369483  -0.012526  -0.020464
    26  C    0.000001  -0.000014   0.000005  -0.029439  -0.014974   0.014939
    27  H   -0.000000  -0.000000   0.000001  -0.011132   0.002571  -0.002320
    28  H    0.000000   0.000000  -0.000000   0.007503  -0.003614  -0.010101
    29  H    0.000000   0.000000  -0.000000   0.001918  -0.000002   0.000843
              25         26         27         28         29
     1  O    0.010066   0.000798  -0.000068  -0.000372   0.000017
     2  O   -0.000000   0.000001   0.000000  -0.000000   0.000000
     3  N    0.000008  -0.038620  -0.002378   0.002340   0.001710
     4  H   -0.000003  -0.006860   0.000526   0.000801   0.001287
     5  C   -0.000140  -0.001373   0.000762  -0.000263  -0.000678
     6  C   -0.002041   0.174157  -0.053185  -0.058035  -0.057321
     7  C    0.000035   0.005785   0.000148  -0.000487   0.003930
     8  C    0.000006   0.000276  -0.000038   0.000004   0.000013
     9  C    0.001658   0.020433  -0.001822   0.001372  -0.000694
    10  H   -0.000145  -0.000057   0.000014   0.000012   0.000000
    11  H   -0.000011  -0.000465  -0.000025   0.000011   0.000050
    12  C    0.025498  -0.073378  -0.017227   0.000281   0.024201
    13  C   -0.039220  -0.047192   0.006059  -0.003166  -0.000319
    14  C    0.000001   0.000829  -0.000381   0.000102   0.000080
    15  H    0.000000   0.000266   0.000010  -0.000010   0.000057
    16  H   -0.000000   0.000049   0.000010  -0.000003  -0.000010
    17  H    0.000000  -0.000171  -0.000054   0.000006   0.000014
    18  C    0.000001   0.000029  -0.000001   0.000000   0.000000
    19  H    0.000000   0.000001  -0.000000   0.000000   0.000000
    20  H    0.000000  -0.000014  -0.000000   0.000000   0.000000
    21  H   -0.000002   0.000005   0.000001  -0.000000  -0.000000
    22  C    0.369483  -0.029439  -0.011132   0.007503   0.001918
    23  H   -0.012526  -0.014974   0.002571  -0.003614  -0.000002
    24  H   -0.020464   0.014939  -0.002320  -0.010101   0.000843
    25  H    0.511231   0.001602  -0.000392   0.001529  -0.000026
    26  C    0.001602   5.238995   0.436006   0.427868   0.394540
    27  H   -0.000392   0.436006   0.513855  -0.034198  -0.023129
    28  H    0.001529   0.427868  -0.034198   0.522827  -0.022622
    29  H   -0.000026   0.394540  -0.023129  -0.022622   0.529607
 Mulliken charges:
               1
     1  O   -0.387045
     2  O   -0.378308
     3  N   -0.133345
     4  H    0.293545
     5  C   -0.028351
     6  C    0.215303
     7  C    0.106878
     8  C    0.136606
     9  C   -0.322047
    10  H    0.205170
    11  H    0.219457
    12  C   -0.095284
    13  C    0.129786
    14  C   -0.383822
    15  H    0.118862
    16  H    0.161930
    17  H    0.159620
    18  C   -0.460908
    19  H    0.151077
    20  H    0.147540
    21  H    0.165537
    22  C   -0.493964
    23  H    0.169765
    24  H    0.151046
    25  H    0.153853
    26  C   -0.504034
    27  H    0.186388
    28  H    0.168214
    29  H    0.146531
 Sum of Mulliken charges =  -0.00000
 Mulliken charges with hydrogens summed into heavy atoms:
               1
     1  O   -0.387045
     2  O   -0.378308
     3  N    0.160200
     5  C   -0.028351
     6  C    0.215303
     7  C    0.106878
     8  C    0.136606
     9  C    0.102580
    12  C   -0.095284
    13  C    0.129786
    14  C    0.056590
    18  C    0.003246
    22  C   -0.019300
    26  C   -0.002902
 Electronic spatial extent (au):  <R**2>=           3189.6937
 Charge=              0.0000 electrons
 Dipole moment (field-independent basis, Debye):
    X=              3.2830    Y=              7.4992    Z=             -0.7697  Tot=              8.2224
 Quadrupole moment (field-independent basis, Debye-Ang):
   XX=           -104.0353   YY=            -79.4117   ZZ=            -84.7339
   XY=             12.6833   XZ=              5.4649   YZ=             -1.3123
 Traceless Quadrupole moment (field-independent basis, Debye-Ang):
   XX=            -14.6417   YY=              9.9819   ZZ=              4.6598
   XY=             12.6833   XZ=              5.4649   YZ=             -1.3123
 Octapole moment (field-independent basis, Debye-Ang**2):
  XXX=             99.3126  YYY=             66.4338  ZZZ=              0.1991  XYY=            -35.9777
  XXY=             31.0250  XXZ=            -10.6617  XZZ=              1.6667  YZZ=             -1.8091
  YYZ=              1.6520  XYZ=             -5.3780
 Hexadecapole moment (field-independent basis, Debye-Ang**3):
 XXXX=          -3097.4234 YYYY=          -1285.3689 ZZZZ=           -156.4187 XXXY=             38.7994
 XXXZ=             61.9070 YYYX=             86.5879 YYYZ=            -22.3381 ZZZX=             -2.8855
 ZZZY=              7.0003 XXYY=           -714.0502 XXZZ=           -494.2154 YYZZ=           -243.6590
 XXYZ=             -7.5719 YYXZ=              7.0037 ZZXY=             -1.5022
 N-N= 9.007876732550D+02 E-N=-3.277237346918D+03  KE= 6.308040700068D+02
 No NMR shielding tensors so no spin-rotation constants.
 Leave Link  601 at Fri Jan 23 21:47:03 2026, MaxMem=  2147483648 cpu:               1.8 elap:               0.1
 (Enter /data/home/wyx/g16/l9999.exe)
 Electronic transition elements 
                 1             2             3             4             5 
      1  -0.633203D+03 -0.633179D+03 -0.633174D+03 -0.633142D+03 -0.633124D+03
      2  -0.157867D+01 -0.146010D+00 -0.521602D-01  0.387207D+00  0.431421D+00
      3  -0.356474D+00 -0.601003D-01  0.134546D+00 -0.172287D+01 -0.140490D+01
      4  -0.121692D+00  0.303315D-01 -0.458082D-01  0.219900D+00  0.110354D+00
      5   0.189423D+00  0.206141D-01  0.810691D-02 -0.662595D-01 -0.859372D-01
      6   0.465239D-01  0.902414D-02 -0.195452D-01  0.309852D+00  0.282007D+00
      7   0.134050D-01 -0.187530D-02  0.355607D-02 -0.352922D-01 -0.230699D-01
      8   0.809501D-01  0.843217D+00  0.505491D+00  0.885352D-01  0.189993D+00
      9  -0.503508D-01  0.131482D+00 -0.891641D+00 -0.773427D-01 -0.260212D-01
     10  -0.143627D+01 -0.261823D+00 -0.106320D+00  0.971640D-01  0.313058D+00
     11   0.186945D+00  0.408054D-01  0.265801D-01 -0.117117D+01 -0.579888D+00
     12  -0.275447D+00 -0.388334D-01 -0.377504D-01  0.182588D+00  0.321176D+00
     13   0.169120D-01 -0.456853D-02  0.409340D-01  0.705459D-02  0.542454D-01
     14  -0.509334D+00 -0.537772D-01 -0.359016D-01 -0.430149D+00 -0.808778D-01
     15   0.868820D-01 -0.504327D-02  0.595307D-01 -0.188524D-01 -0.165187D-01
     16  -0.192484D-01  0.829350D-01  0.277585D-01 -0.773991D-01  0.437906D-01
                 6 
      1  -0.633108D+03
      2  -0.592688D-01
      3   0.235336D+00
      4   0.586761D-01
      5   0.135543D-01
      6  -0.493558D-01
      7  -0.323415D-01
      8  -0.353474D-01
      9  -0.233443D-01
     10   0.110621D-01
     11  -0.245456D+00
     12  -0.204111D+00
     13   0.182927D+00
     14  -0.279267D-02
     15  -0.291194D-01
     16   0.563917D-01
 1\1\GINC-CN012\SP\RCAM-B3LYP TD-FC\TZVP\C11H15N1O2\WYX\23-Jan-2026\0\\
 #p CAM-B3LYP TZVP em=gd3bj td(nstates=6,root=1) scrf=(Solvent=TetraHyd
 roFuran,CorrectedLR,NonEquilibrium=Save) Geom=Check Guess=Read\\Title 
 Card Required\\0,1\O,0,2.835325,-1.564727,0.151062\O,0,-3.419382,-1.62
 1129,0.074814\N,0,-0.635023,1.510422,-0.364906\H,0,-0.943978,2.467738,
 -0.419095\C,0,-1.237575,-0.75755,-0.223371\C,0,0.701128,1.299455,-0.10
 5661\C,0,-1.611317,0.546648,-0.292429\C,0,-2.22378,-1.828409,-0.10016\
 C,0,0.219739,-1.111762,-0.35379\H,0,0.467803,-1.956362,0.28668\H,0,0.4
 38047,-1.468115,-1.370088\C,0,1.151411,0.02257,-0.013629\C,0,2.512662,
 -0.393772,0.325538\C,0,-3.002158,1.088073,-0.297785\H,0,-3.004832,2.14
 1752,-0.574133\H,0,-3.636378,0.537489,-0.984702\H,0,-3.457201,0.988603
 ,0.685913\C,0,-1.730135,-3.249197,-0.190404\H,0,-2.579625,-3.920189,-0
 .269346\H,0,-1.067446,-3.397565,-1.041172\H,0,-1.16258,-3.510819,0.703
 151\C,0,3.531918,0.543463,0.927016\H,0,4.046737,1.099008,0.141193\H,0,
 3.097844,1.25847,1.621044\H,0,4.271857,-0.062626,1.44439\C,0,1.468101,
 2.577239,0.033913\H,0,1.520537,2.892581,1.076482\H,0,2.477723,2.497665
 ,-0.348671\H,0,0.970578,3.371046,-0.521857\\Version=ES64L-G16RevA.03\S
 tate=1-A\HF=-633.3287127\RMSD=2.839e-09\Dipole=0.262504,3.2049297,-0.3
 527381\Quadrupole=-15.4864456,11.3443162,4.1421294,1.529976,1.9477754,
 0.4387697\PG=C01 [X(C11H15N1O2)]\\@


 TRUTH, IN SCIENCE, CAN BE DEFINED AS THE WORKING HYPOTHESIS 
 BEST FITTED TO OPEN THE WAY TO THE NEXT BETTER ONE.

                              -- KONRAD LORENZ
 Job cpu time:       0 days  2 hours 43 minutes  6.7 seconds.
 Elapsed time:       0 days  0 hours 10 minutes 14.8 seconds.
 File lengths (MBytes):  RWF=    734 Int=      0 D2E=      0 Chk=     67 Scr=      1
 Normal termination of Gaussian 16 at Fri Jan 23 21:47:05 2026.
