 Entering Gaussian System, Link 0=g16
 Input=DDL-LR-Eq-7.gjf
 Output=DDL-LR-Eq-7.log
 Initial command:
 /data/home/wyx/g16/l1.exe "/scr/tmp/wyx/13106/Gau-1964728.inp" -scrdir="/scr/tmp/wyx/13106/"
 Entering Link 1 = /data/home/wyx/g16/l1.exe PID=   1964729.
  
 Copyright (c) 1988,1990,1992,1993,1995,1998,2003,2009,2016,
            Gaussian, Inc.  All Rights Reserved.
  
 This is part of the Gaussian(R) 16 program.  It is based on
 the Gaussian(R) 09 system (copyright 2009, Gaussian, Inc.),
 the Gaussian(R) 03 system (copyright 2003, Gaussian, Inc.),
 the Gaussian(R) 98 system (copyright 1998, Gaussian, Inc.),
 the Gaussian(R) 94 system (copyright 1995, Gaussian, Inc.),
 the Gaussian 92(TM) system (copyright 1992, Gaussian, Inc.),
 the Gaussian 90(TM) system (copyright 1990, Gaussian, Inc.),
 the Gaussian 88(TM) system (copyright 1988, Gaussian, Inc.),
 the Gaussian 86(TM) system (copyright 1986, Carnegie Mellon
 University), and the Gaussian 82(TM) system (copyright 1983,
 Carnegie Mellon University). Gaussian is a federally registered
 trademark of Gaussian, Inc.
  
 This software contains proprietary and confidential information,
 including trade secrets, belonging to Gaussian, Inc.
  
 This software is provided under written license and may be
 used, copied, transmitted, or stored only in accord with that
 written license.
  
 The following legend is applicable only to US Government
 contracts under FAR:
  
                    RESTRICTED RIGHTS LEGEND
  
 Use, reproduction and disclosure by the US Government is
 subject to restrictions as set forth in subparagraphs (a)
 and (c) of the Commercial Computer Software - Restricted
 Rights clause in FAR 52.227-19.
  
 Gaussian, Inc.
 340 Quinnipiac St., Bldg. 40, Wallingford CT 06492
  
  
 ---------------------------------------------------------------
 Warning -- This program may not be used in any manner that
 competes with the business of Gaussian, Inc. or will provide
 assistance to any competitor of Gaussian, Inc.  The licensee
 of this program is prohibited from giving any competitor of
 Gaussian, Inc. access to this program.  By using this program,
 the user acknowledges that Gaussian, Inc. is engaged in the
 business of creating and licensing software in the field of
 computational chemistry and represents and warrants to the
 licensee that it is not a competitor of Gaussian, Inc. and that
 it will not use this program in any manner prohibited above.
 ---------------------------------------------------------------
  

 Cite this work as:
 Gaussian 16, Revision A.03,
 M. J. Frisch, G. W. Trucks, H. B. Schlegel, G. E. Scuseria, 
 M. A. Robb, J. R. Cheeseman, G. Scalmani, V. Barone, 
 G. A. Petersson, H. Nakatsuji, X. Li, M. Caricato, A. V. Marenich, 
 J. Bloino, B. G. Janesko, R. Gomperts, B. Mennucci, H. P. Hratchian, 
 J. V. Ortiz, A. F. Izmaylov, J. L. Sonnenberg, D. Williams-Young, 
 F. Ding, F. Lipparini, F. Egidi, J. Goings, B. Peng, A. Petrone, 
 T. Henderson, D. Ranasinghe, V. G. Zakrzewski, J. Gao, N. Rega, 
 G. Zheng, W. Liang, M. Hada, M. Ehara, K. Toyota, R. Fukuda, 
 J. Hasegawa, M. Ishida, T. Nakajima, Y. Honda, O. Kitao, H. Nakai, 
 T. Vreven, K. Throssell, J. A. Montgomery, Jr., J. E. Peralta, 
 F. Ogliaro, M. J. Bearpark, J. J. Heyd, E. N. Brothers, K. N. Kudin, 
 V. N. Staroverov, T. A. Keith, R. Kobayashi, J. Normand, 
 K. Raghavachari, A. P. Rendell, J. C. Burant, S. S. Iyengar, 
 J. Tomasi, M. Cossi, J. M. Millam, M. Klene, C. Adamo, R. Cammi, 
 J. W. Ochterski, R. L. Martin, K. Morokuma, O. Farkas, 
 J. B. Foresman, and D. J. Fox, Gaussian, Inc., Wallingford CT, 2016.
 
 ******************************************
 Gaussian 16:  ES64L-G16RevA.03 25-Dec-2016
                23-Jan-2026 
 ******************************************
 %nprocshared=16
 Will use up to   16 processors via shared memory.
 %mem=16GB
 %oldchk=DDL-LR-7.chk
 %chk=DDL-LR-Eq-7.chk
 Copying data from "DDL-LR-7.chk" to current chk file "DDL-LR-Eq-7.chk"
 IOpt=  2 FromEx=T IUOpen= 4 IOptOp= 5 NList=   0 IFRang= 0 IUIn= 4 IUOut= 2.
 ----------------------------------------------------------------------
 #p CAM-B3LYP TZVP em=gd3bj td(Eqsolv,nstates=6,root=1) scrf=(Solvent=T
 etraHydroFuran) Geom=Check Guess=Read
 ----------------------------------------------------------------------
 1/29=2,38=1,172=1/1;
 2/12=2,40=1/2;
 3/5=19,7=101,11=9,14=-4,25=1,30=1,70=2201,72=20,74=-40,116=-2,124=41/1,2,3,8;
 4/5=1/1;
 5/5=2,38=6,53=20/2;
 8/6=1,10=1,107=1,108=6/1;
 9/8=1,41=6,42=1,70=2,73=2/14;
 6/7=2,8=2,9=2,10=2/1;
 99/5=1,9=1/99;
 Leave Link    1 at Fri Jan 23 15:45:08 2026, MaxMem=  2147483648 cpu:               0.8 elap:               0.1
 (Enter /data/home/wyx/g16/l101.exe)
 -------------------
 Title Card Required
 -------------------
 Structure from the checkpoint file:  "DDL-LR-Eq-7.chk"
 Charge =  0 Multiplicity = 1
 Z-Matrix found in chk file.
 O,0,2.838465,-1.570358,0.07902
 O,0,-3.4266,-1.638653,-0.062623
 N,0,-0.653994,1.515412,-0.250937
 H,0,-0.964881,2.474722,-0.302122
 C,0,-1.244676,-0.760561,-0.209157
 C,0,0.686978,1.32176,-0.053511
 C,0,-1.62836,0.566784,-0.257947
 C,0,-2.216337,-1.839589,-0.152746
 C,0,0.203507,-1.092919,-0.249185
 H,0,0.428903,-1.913571,0.436692
 H,0,0.461299,-1.528391,-1.229056
 C,0,1.148878,0.024885,0.021429
 C,0,2.516298,-0.398923,0.29022
 C,0,-3.016382,1.099118,-0.330496
 H,0,-3.016773,2.174666,-0.498146
 H,0,-3.579167,0.623799,-1.126949
 H,0,-3.561889,0.896921,0.587044
 C,0,-1.717988,-3.258967,-0.187447
 H,0,-2.542786,-3.926465,-0.409669
 H,0,-0.930823,-3.41539,-0.918743
 H,0,-1.310522,-3.54344,0.781541
 C,0,3.553956,0.533416,0.866513
 H,0,4.063063,1.078634,0.069273
 H,0,3.139936,1.257691,1.563139
 H,0,4.296261,-0.075783,1.377367
 C,0,1.46814,2.591157,0.028066
 H,0,1.645233,2.895303,1.059564
 H,0,2.430542,2.505552,-0.462774
 H,0,0.929718,3.403189,-0.458361
 Recover connectivity data from disk.
 ITRead=  0  0  0  0  0  0  0  0  0  0  0  0  0  0  0  0  0  0  0  0
 ITRead=  0  0  0  0  0  0  0  0  0
 MicOpt= -1 -1 -1 -1 -1 -1 -1 -1 -1 -1 -1 -1 -1 -1 -1 -1 -1 -1 -1 -1
 MicOpt= -1 -1 -1 -1 -1 -1 -1 -1 -1
 NAtoms=     29 NQM=       29 NQMF=       0 NMMI=      0 NMMIF=      0
                NMic=       0 NMicF=      0.
                    Isotopes and Nuclear Properties:
 (Nuclear quadrupole moments (NQMom) in fm**2, nuclear magnetic moments (NMagM)
  in nuclear magnetons)

  Atom         1           2           3           4           5           6           7           8           9          10
 IAtWgt=          16          16          14           1          12          12          12          12          12           1
 AtmWgt=  15.9949146  15.9949146  14.0030740   1.0078250  12.0000000  12.0000000  12.0000000  12.0000000  12.0000000   1.0078250
 NucSpn=           0           0           2           1           0           0           0           0           0           1
 AtZEff=   5.6000000   5.6000000   4.5500000   1.0000000   3.6000000   3.6000000   3.6000000   3.6000000   3.6000000   1.0000000
 NQMom=    0.0000000   0.0000000   2.0440000   0.0000000   0.0000000   0.0000000   0.0000000   0.0000000   0.0000000   0.0000000
 NMagM=    0.0000000   0.0000000   0.4037610   2.7928460   0.0000000   0.0000000   0.0000000   0.0000000   0.0000000   2.7928460
 AtZNuc=   8.0000000   8.0000000   7.0000000   1.0000000   6.0000000   6.0000000   6.0000000   6.0000000   6.0000000   1.0000000

  Atom        11          12          13          14          15          16          17          18          19          20
 IAtWgt=           1          12          12          12           1           1           1          12           1           1
 AtmWgt=   1.0078250  12.0000000  12.0000000  12.0000000   1.0078250   1.0078250   1.0078250  12.0000000   1.0078250   1.0078250
 NucSpn=           1           0           0           0           1           1           1           0           1           1
 AtZEff=   1.0000000   3.6000000   3.6000000   3.6000000   1.0000000   1.0000000   1.0000000   3.6000000   1.0000000   1.0000000
 NQMom=    0.0000000   0.0000000   0.0000000   0.0000000   0.0000000   0.0000000   0.0000000   0.0000000   0.0000000   0.0000000
 NMagM=    2.7928460   0.0000000   0.0000000   0.0000000   2.7928460   2.7928460   2.7928460   0.0000000   2.7928460   2.7928460
 AtZNuc=   1.0000000   6.0000000   6.0000000   6.0000000   1.0000000   1.0000000   1.0000000   6.0000000   1.0000000   1.0000000

  Atom        21          22          23          24          25          26          27          28          29
 IAtWgt=           1          12           1           1           1          12           1           1           1
 AtmWgt=   1.0078250  12.0000000   1.0078250   1.0078250   1.0078250  12.0000000   1.0078250   1.0078250   1.0078250
 NucSpn=           1           0           1           1           1           0           1           1           1
 AtZEff=   1.0000000   3.6000000   1.0000000   1.0000000   1.0000000   3.6000000   1.0000000   1.0000000   1.0000000
 NQMom=    0.0000000   0.0000000   0.0000000   0.0000000   0.0000000   0.0000000   0.0000000   0.0000000   0.0000000
 NMagM=    2.7928460   0.0000000   2.7928460   2.7928460   2.7928460   0.0000000   2.7928460   2.7928460   2.7928460
 AtZNuc=   1.0000000   6.0000000   1.0000000   1.0000000   1.0000000   6.0000000   1.0000000   1.0000000   1.0000000
 Leave Link  101 at Fri Jan 23 15:45:12 2026, MaxMem=  2147483648 cpu:               0.9 elap:               0.1
 (Enter /data/home/wyx/g16/l202.exe)
                          Input orientation:                          
 ---------------------------------------------------------------------
 Center     Atomic      Atomic             Coordinates (Angstroms)
 Number     Number       Type             X           Y           Z
 ---------------------------------------------------------------------
      1          8           0        2.838465   -1.570358    0.079020
      2          8           0       -3.426600   -1.638653   -0.062623
      3          7           0       -0.653994    1.515412   -0.250937
      4          1           0       -0.964881    2.474722   -0.302122
      5          6           0       -1.244676   -0.760561   -0.209157
      6          6           0        0.686978    1.321760   -0.053511
      7          6           0       -1.628360    0.566784   -0.257947
      8          6           0       -2.216337   -1.839589   -0.152746
      9          6           0        0.203507   -1.092919   -0.249185
     10          1           0        0.428903   -1.913571    0.436692
     11          1           0        0.461299   -1.528391   -1.229056
     12          6           0        1.148878    0.024885    0.021429
     13          6           0        2.516298   -0.398923    0.290220
     14          6           0       -3.016382    1.099118   -0.330496
     15          1           0       -3.016773    2.174666   -0.498146
     16          1           0       -3.579167    0.623799   -1.126949
     17          1           0       -3.561889    0.896921    0.587044
     18          6           0       -1.717988   -3.258967   -0.187447
     19          1           0       -2.542786   -3.926465   -0.409669
     20          1           0       -0.930823   -3.415390   -0.918743
     21          1           0       -1.310522   -3.543440    0.781541
     22          6           0        3.553956    0.533416    0.866513
     23          1           0        4.063063    1.078634    0.069273
     24          1           0        3.139936    1.257691    1.563139
     25          1           0        4.296261   -0.075783    1.377367
     26          6           0        1.468140    2.591157    0.028066
     27          1           0        1.645233    2.895303    1.059564
     28          1           0        2.430542    2.505552   -0.462774
     29          1           0        0.929718    3.403189   -0.458361
 ---------------------------------------------------------------------
                    Distance matrix (angstroms):
                    1          2          3          4          5
     1  O    0.000000
     2  O    6.267038   0.000000
     3  N    4.672057   4.203681   0.000000
     4  H    5.565374   4.799716   1.009726   0.000000
     5  C    4.172632   2.356546   2.351745   3.248690   0.000000
     6  C    3.607050   5.068101   1.369191   2.029721   2.844569
     7  C    4.963209   2.852327   1.359902   2.020491   1.382548
     8  C    5.067270   1.230136   3.702241   4.494634   1.453138
     9  C    2.697901   3.675637   2.745670   3.754463   1.486371
    10  H    2.460023   3.897409   3.661069   4.663217   2.132468
    11  H    2.713622   4.060601   3.386050   4.349495   2.130753
    12  C    2.324397   4.869232   2.355037   3.251825   2.529663
    13  C    1.233149   6.081074   3.742764   4.552726   3.811179
    14  C    6.447716   2.781263   2.400106   2.470172   2.571395
    15  H    6.974392   3.859927   2.465452   2.082959   3.440843
    16  H    6.888736   2.504946   3.181039   3.307680   2.865073
    17  H    6.878233   2.620974   3.088786   3.166153   2.958151
    18  C    4.866587   2.358040   4.891913   5.784074   2.542937
    19  H    5.894737   2.477025   5.762530   6.593675   3.427571
    20  H    4.313607   3.180981   4.983514   5.922398   2.765887
    21  H    4.647653   2.969615   5.204712   6.124710   2.954697
    22  C    2.357528   7.369487   4.463166   5.055123   5.085107
    23  H    2.918372   7.968444   4.748046   5.231369   5.624256
    24  H    3.208014   7.358757   4.213217   4.670106   5.141906
    25  H    2.458583   8.009914   5.448697   6.083204   5.804133
    26  C    4.381620   6.469776   2.395521   2.458083   4.318525
    27  H    4.725188   6.894893   2.984620   2.973848   4.829759
    28  H    4.131947   7.186144   3.246477   3.399361   4.923316
    29  H    5.354275   6.674900   2.472826   2.115648   4.703925
                    6          7          8          9         10
     6  C    0.000000
     7  C    2.443885   0.000000
     8  C    4.293392   2.479398   0.000000
     9  C    2.470366   2.471928   2.534258   0.000000
    10  H    3.282418   3.296516   2.711126   1.093023   0.000000
    11  H    3.091310   3.114400   2.902589   1.102833   1.710009
    12  C    1.378714   2.843371   3.851139   1.488773   2.109128
    13  C    2.534820   4.290835   4.966847   2.474185   2.583182
    14  C    3.720372   1.488371   3.050847   3.896065   4.640567
    15  H    3.826607   2.137913   4.107827   4.594485   5.427733
    16  H    4.454145   2.136367   2.979036   4.245729   4.994782
    17  H    4.317832   2.135775   3.137879   4.340155   4.883430
    18  C    5.175409   3.827450   1.504722   2.896156   2.609364
    19  H    6.172689   4.587862   2.127823   3.949286   3.687683
    20  H    5.080010   4.096452   2.173119   2.669997   2.437523
    21  H    5.325175   4.251529   2.143945   3.059368   2.408525
    22  C    3.112474   5.303011   6.321892   3.887834   3.992299
    23  H    3.387054   5.723754   6.927928   4.439958   4.721801
    24  H    2.938480   5.150762   6.420831   4.175225   4.321514
    25  H    4.126435   6.179667   6.918540   4.520052   4.383924
    26  C    1.492728   3.710553   5.765377   3.904943   4.641073
    27  H    2.152493   4.227795   6.229014   4.438165   4.999270
    28  H    2.146829   4.502828   6.369447   4.237251   4.933989
    29  H    2.134285   3.824804   6.121910   4.559180   5.414783
                   11         12         13         14         15
    11  H    0.000000
    12  C    2.109299   0.000000
    13  C    2.794086   1.456605   0.000000
    14  C    4.450335   4.315926   5.765411   0.000000
    15  H    5.132626   4.716372   6.153028   1.088536   0.000000
    16  H    4.579052   4.902232   6.341058   1.084893   1.765466
    17  H    5.036507   4.824074   6.221871   1.086435   1.762788
    18  C    2.971386   4.364199   5.131978   4.549637   5.595332
    19  H    3.930227   5.424702   6.207071   5.048470   6.120155
    20  H    2.365389   4.128507   4.737437   5.007632   5.981372
    21  H    3.352950   4.399927   4.977342   5.069510   6.102920
    22  C    4.266964   2.599456   1.509339   6.702402   6.908725
    23  H    4.631948   3.099218   2.150459   7.090753   7.186608
    24  H    4.767987   2.803746   2.180279   6.442922   6.557042
    25  H    4.859058   3.428516   2.110587   7.600785   7.877978
    26  C    4.423207   2.586063   3.179298   4.739798   4.534844
    27  H    5.119429   3.092473   3.493218   5.185480   4.967905
    28  H    4.553878   2.833871   3.001721   5.627125   5.457470
    29  H    5.013369   3.419235   4.187322   4.571302   4.133478
                   16         17         18         19         20
    16  H    0.000000
    17  H    1.735703   0.000000
    18  C    4.407099   4.612072   0.000000
    19  H    4.721597   5.029618   1.084079   0.000000
    20  H    4.834472   5.271236   1.085767   1.766006   0.000000
    21  H    5.114193   4.982297   1.088986   1.756179   1.746864
    22  C    7.406990   7.130602   6.579240   7.660903   6.236461
    23  H    7.748645   7.644671   7.231960   8.301665   6.790532
    24  H    7.265311   6.782136   6.860334   7.941081   6.675965
    25  H    8.293575   7.957467   6.982299   8.049460   6.614190
    26  C    5.538941   5.337048   6.664969   7.665412   6.536825
    27  H    6.102043   5.597403   7.123295   8.138468   7.097507
    28  H    6.332355   6.292777   7.107446   8.130661   6.823799
    29  H    5.338732   5.248694   7.174125   8.110763   7.082837
                   21         22         23         24         25
    21  H    0.000000
    22  C    6.347529   0.000000
    23  H    7.123644   1.091808   0.000000
    24  H    6.593052   1.086865   1.765180   0.000000
    25  H    6.619341   1.087709   1.760162   1.774754   0.000000
    26  C    6.776575   3.047609   3.003839   2.632391   4.114784
    27  H    7.090218   3.042861   3.182273   2.273653   3.994534
    28  H    7.220401   2.630282   2.232553   2.482886   3.678358
    29  H    7.403492   4.108225   3.936979   3.684384   5.177524
                   26         27         28         29
    26  C    0.000000
    27  H    1.089888   0.000000
    28  H    1.083730   1.756738   0.000000
    29  H    1.088993   1.753284   1.748784   0.000000
 Stoichiometry    C11H15NO2
 Framework group  C1[X(C11H15NO2)]
 Deg. of freedom    81
 Full point group                 C1      NOp   1
 RotChk:  IX=0 Diff= 1.25D-15
 Largest Abelian subgroup         C1      NOp   1
 Largest concise Abelian subgroup C1      NOp   1
                         Standard orientation:                         
 ---------------------------------------------------------------------
 Center     Atomic      Atomic             Coordinates (Angstroms)
 Number     Number       Type             X           Y           Z
 ---------------------------------------------------------------------
      1          8           0        2.286078   -2.282415   -0.244857
      2          8           0       -3.616853   -0.254138    0.318399
      3          7           0        0.020844    1.802378   -0.138584
      4          1           0        0.047288    2.811753   -0.141665
      5          6           0       -1.293549   -0.146224   -0.060972
      6          6           0        1.231208    1.163722   -0.095889
      7          6           0       -1.211214    1.233814   -0.048574
      8          6           0       -2.560502   -0.841669    0.090007
      9          6           0       -0.053573   -0.939225   -0.268114
     10          1           0       -0.048989   -1.821526    0.377040
     11          1           0       -0.058169   -1.385766   -1.276489
     12          6           0        1.235005   -0.214977   -0.090699
     13          6           0        2.399952   -1.082750    0.016856
     14          6           0       -2.339022    2.200759    0.042614
     15          1           0       -1.994601    3.222094   -0.109566
     16          1           0       -3.106658    1.980610   -0.691730
     17          1           0       -2.824628    2.145762    1.012926
     18          6           0       -2.574918   -2.342334   -0.019474
     19          1           0       -3.594220   -2.685132   -0.156368
     20          1           0       -1.964795   -2.714840   -0.836713
     21          1           0       -2.190770   -2.794611    0.893635
     22          6           0        3.743571   -0.579248    0.485125
     23          1           0        4.322698   -0.195192   -0.356990
     24          1           0        3.670301    0.205499    1.233508
     25          1           0        4.285469   -1.425693    0.901045
     26          6           0        2.397853    2.094890   -0.085795
     27          1           0        2.770668    2.270411    0.923192
     28          1           0        3.220270    1.718633   -0.682899
     29          1           0        2.117549    3.063232   -0.497680
 ---------------------------------------------------------------------
 Rotational constants (GHZ):           1.0774734           0.4903628           0.3443071
 Leave Link  202 at Fri Jan 23 15:45:12 2026, MaxMem=  2147483648 cpu:               0.0 elap:               0.0
 (Enter /data/home/wyx/g16/l301.exe)
 Standard basis: TZVP (5D, 7F)
 Ernie: Thresh=  0.10000D-02 Tol=  0.10000D-05 Strict=F.
 There are   370 symmetry adapted cartesian basis functions of A   symmetry.
 There are   356 symmetry adapted basis functions of A   symmetry.
   356 basis functions,   610 primitive gaussians,   370 cartesian basis functions
    52 alpha electrons       52 beta electrons
       nuclear repulsion energy       900.1799649343 Hartrees.
 IExCor=20419 DFT=T Ex+Corr=CAM-B3LYP ExCW=0 ScaHFX=  1.000000
 ScaDFX=  1.000000  1.000000  1.000000  0.810000 ScalE2=  1.000000  1.000000
 IRadAn=      5 IRanWt=     -1 IRanGd=            0 ICorTp=0 IEmpDi=141
 HFx  wShort=  0.000000 wLong=  0.330000 cFull=  0.190000 cShort=  0.000000 cLong=  0.460000
 DFx  wShort=  0.000000 wLong=  0.330000 cFull=  0.190000 cShort=  0.000000 cLong=  0.460000
 NAtoms=   29 NActive=   29 NUniq=   29 SFac= 1.00D+00 NAtFMM=   60 NAOKFM=F Big=F
 Integral buffers will be    131072 words long.
 Raffenetti 1 integral format.
 Two-electron integral symmetry is turned on.
 R6Disp:  Grimme-D3(BJ) Dispersion energy=       -0.0261617359 Hartrees.
 Nuclear repulsion after empirical dispersion term =      900.1538031984 Hartrees.
 ------------------------------------------------------------------------------
 Polarizable Continuum Model (PCM)
 =================================
 Model                : PCM.
 Atomic radii         : UFF (Universal Force Field).
 Polarization charges : Total charges.
 Charge compensation  : None.
 Solution method      : On-the-fly selection.
 Cavity type          : Scaled VdW (van der Waals Surface) (Alpha=1.100).
 Cavity algorithm     : GePol (No added spheres)
                        Default sphere list used, NSphG=   29.
                        Lebedev-Laikov grids with approx.  5.0 points / Ang**2.
                        Smoothing algorithm: York/Karplus (Gamma=1.0000).
                        Polarization charges: spherical gaussians, with
                                              point-specific exponents (IZeta= 3).
                        Self-potential: point-specific (ISelfS= 7).
                        Self-field    : sphere-specific E.n sum rule (ISelfD= 2).
 Solvent              : TetraHydroFuran, Eps=   7.425700 Eps(inf)=   1.974025
 ------------------------------------------------------------------------------
 GePol: Number of generator spheres                  =      29
 GePol: Total number of spheres                      =      29
 GePol: Number of exposed spheres                    =      29 (100.00%)
 GePol: Number of points                             =    2124
 GePol: Average weight of points                     =       0.13
 GePol: Minimum weight of points                     =   0.40D-09
 GePol: Maximum weight of points                     =    0.20577
 GePol: Number of points with low weight             =     140
 GePol: Fraction of low-weight points (<1% of avg)   =       6.59%
 GePol: Cavity surface area                          =    268.604 Ang**2
 GePol: Cavity volume                                =    286.664 Ang**3
 Leave Link  301 at Fri Jan 23 15:45:12 2026, MaxMem=  2147483648 cpu:               0.6 elap:               0.0
 (Enter /data/home/wyx/g16/l302.exe)
 NPDir=0 NMtPBC=     1 NCelOv=     1 NCel=       1 NClECP=     1 NCelD=      1
         NCelK=      1 NCelE2=     1 NClLst=     1 CellRange=     0.0.
 One-electron integrals computed using PRISM.
 One-electron integral symmetry used in STVInt
 NBasis=   356 RedAO= T EigKep=  4.50D-05  NBF=   356
 NBsUse=   356 1.00D-06 EigRej= -1.00D+00 NBFU=   356
 Precomputing XC quadrature grid using
 IXCGrd= 4 IRadAn=           5 IRanWt=          -1 IRanGd=           0 AccXCQ= 0.00D+00.
 Generated NRdTot=       0 NPtTot=           0 NUsed=           0 NTot=          32
 NSgBfM=   366   366   366   366   366 MxSgAt=    29 MxSgA2=    29.
 Leave Link  302 at Fri Jan 23 15:45:13 2026, MaxMem=  2147483648 cpu:               3.2 elap:               0.2
 (Enter /data/home/wyx/g16/l303.exe)
 DipDrv:  MaxL=1.
 Leave Link  303 at Fri Jan 23 15:45:13 2026, MaxMem=  2147483648 cpu:               0.6 elap:               0.1
 (Enter /data/home/wyx/g16/l308.exe)
 Leave Link  308 at Fri Jan 23 15:45:13 2026, MaxMem=  2147483648 cpu:               0.7 elap:               0.1
 (Enter /data/home/wyx/g16/l401.exe)
 Initial guess from the checkpoint file:  "DDL-LR-Eq-7.chk"
 B after Tr=     0.000000   -0.000000    0.000000
         Rot=    1.000000   -0.000000    0.000000    0.000000 Ang=   0.00 deg.
 Guess basis will be translated and rotated to current coordinates.
 JPrj=2 DoOrth=T DoCkMO=T.
 Leave Link  401 at Fri Jan 23 15:45:13 2026, MaxMem=  2147483648 cpu:               2.2 elap:               0.2
 (Enter /data/home/wyx/g16/l502.exe)
 Integral symmetry usage will be decided dynamically.
 Closed shell SCF:
 Using DIIS extrapolation, IDIIS=  1040.
 NGot=  2147483648 LenX=  2147200095 LenY=  2147062754
 Requested convergence on RMS density matrix=1.00D-08 within 128 cycles.
 Requested convergence on MAX density matrix=1.00D-06.
 Requested convergence on             energy=1.00D-06.
 No special actions if energy rises.
 Fock matrices will be formed incrementally for  20 cycles.

 Cycle   1  Pass 1  IDiag  1:
 FoFJK:  IHMeth= 1 ICntrl=       0 DoSepK=T KAlg= 0 I1Cent=           0 FoldK=F
 IRaf=         1 NMat=       1 IRICut=       1 DoRegI=T DoRafI=F ISym2E= 0 IDoP0=0 IntGTp=1.
 FoFCou: FMM=F IPFlag=           0 FMFlag=      100000 FMFlg1=           0
         NFxFlg=           0 DoJE=T BraDBF=F KetDBF=F FulRan=T
         wScrn=  0.000000 ICntrl=       500 IOpCl=  0 I1Cent=           0 NGrid=           0
         NMat0=    1 NMatS0=      1 NMatT0=    0 NMatD0=    1 NMtDS0=    0 NMtDT0=    0
 Symmetry not used in FoFCou.
 Inv3:  Mode=1 IEnd=    13534128.
 Iteration    1 A*A^-1 deviation from unit magnitude is 2.89D-15 for   1052.
 Iteration    1 A*A^-1 deviation from orthogonality  is 1.92D-15 for   1823    619.
 Iteration    1 A^-1*A deviation from unit magnitude is 2.89D-15 for    913.
 Iteration    1 A^-1*A deviation from orthogonality  is 2.70D-15 for   1546   1126.
 E= -633.324825217219    
 DIIS: error= 1.48D-08 at cycle   1 NSaved=   1.
 NSaved= 1 IEnMin= 1 EnMin= -633.324825217219     IErMin= 1 ErrMin= 1.48D-08
 ErrMax= 1.48D-08  0.00D+00 EMaxC= 1.00D-01 BMatC= 5.93D-14 BMatP= 5.93D-14
 IDIUse=1 WtCom= 1.00D+00 WtEn= 0.00D+00
 Coeff-Com:  0.100D+01
 Coeff:      0.100D+01
 Gap=     0.225 Goal=   None    Shift=    0.000
 RMSDP=2.98D-09 MaxDP=8.12D-08              OVMax= 2.85D-07

 Error on total polarization charges =  0.01421
 SCF Done:  E(RCAM-B3LYP) =  -633.324825217     A.U. after    1 cycles
            NFock=  1  Conv=0.30D-08     -V/T= 2.0041
 KE= 6.307118564944D+02 PE=-3.276338998550D+03 EE= 1.112148513640D+03
 Leave Link  502 at Fri Jan 23 15:45:19 2026, MaxMem=  2147483648 cpu:              85.5 elap:               5.6
 (Enter /data/home/wyx/g16/l801.exe)
 DoSCS=F DFT=T ScalE2(SS,OS)=  1.000000  1.000000
 ExpMin= 9.52D-02 ExpMax= 2.70D+04 ExpMxC= 9.22D+02 IAcc=3 IRadAn=         5 AccDes= 0.00D+00
 HarFok:  IExCor=  205 AccDes= 0.00D+00 IRadAn=         5 IDoV=-2 UseB2=F ITyADJ=14
 ICtDFT= 12500011 ScaDFX=  1.000000  1.000000  1.000000  1.000000
 Largest valence mixing into a core orbital is  5.60D-05
 Largest core mixing into a valence orbital is  1.17D-05
 Range of M.O.s used for correlation:    15   356
 NBasis=   356 NAE=    52 NBE=    52 NFC=    14 NFV=     0
 NROrb=    342 NOA=    38 NOB=    38 NVA=   304 NVB=   304

 **** Warning!!: The largest alpha MO coefficient is  0.60515039D+02

 Leave Link  801 at Fri Jan 23 15:45:20 2026, MaxMem=  2147483648 cpu:               1.0 elap:               0.1
 (Enter /data/home/wyx/g16/l914.exe)
 RHF ground state
 Two-electron integrals replicated using symmetry.
 MDV=  2147483648 DFT=T DoStab=F Mixed=T DoRPA=T DoScal=F NonHer=T
 NEqPCM:  Using equilibrium solvation (IEInf=0, Eps=   7.4257, EpsInf=   1.9740)
 Making orbital integer symmetry assigments:
 Orbital symmetries:
       Occupied  (A) (A) (A) (A) (A) (A) (A) (A) (A) (A) (A) (A)
                 (A) (A) (A) (A) (A) (A) (A) (A) (A) (A) (A) (A)
                 (A) (A) (A) (A) (A) (A) (A) (A) (A) (A) (A) (A)
                 (A) (A) (A) (A) (A) (A) (A) (A) (A) (A) (A) (A)
                 (A) (A) (A) (A)
       Virtual   (A) (A) (A) (A) (A) (A) (A) (A) (A) (A) (A) (A)
                 (A) (A) (A) (A) (A) (A) (A) (A) (A) (A) (A) (A)
                 (A) (A) (A) (A) (A) (A) (A) (A) (A) (A) (A) (A)
                 (A) (A) (A) (A) (A) (A) (A) (A) (A) (A) (A) (A)
                 (A) (A) (A) (A) (A) (A) (A) (A) (A) (A) (A) (A)
                 (A) (A) (A) (A) (A) (A) (A) (A) (A) (A) (A) (A)
                 (A) (A) (A) (A) (A) (A) (A) (A) (A) (A) (A) (A)
                 (A) (A) (A) (A) (A) (A) (A) (A) (A) (A) (A) (A)
                 (A) (A) (A) (A) (A) (A) (A) (A) (A) (A) (A) (A)
                 (A) (A) (A) (A) (A) (A) (A) (A) (A) (A) (A) (A)
                 (A) (A) (A) (A) (A) (A) (A) (A) (A) (A) (A) (A)
                 (A) (A) (A) (A) (A) (A) (A) (A) (A) (A) (A) (A)
                 (A) (A) (A) (A) (A) (A) (A) (A) (A) (A) (A) (A)
                 (A) (A) (A) (A) (A) (A) (A) (A) (A) (A) (A) (A)
                 (A) (A) (A) (A) (A) (A) (A) (A) (A) (A) (A) (A)
                 (A) (A) (A) (A) (A) (A) (A) (A) (A) (A) (A) (A)
                 (A) (A) (A) (A) (A) (A) (A) (A) (A) (A) (A) (A)
                 (A) (A) (A) (A) (A) (A) (A) (A) (A) (A) (A) (A)
                 (A) (A) (A) (A) (A) (A) (A) (A) (A) (A) (A) (A)
                 (A) (A) (A) (A) (A) (A) (A) (A) (A) (A) (A) (A)
                 (A) (A) (A) (A) (A) (A) (A) (A) (A) (A) (A) (A)
                 (A) (A) (A) (A) (A) (A) (A) (A) (A) (A) (A) (A)
                 (A) (A) (A) (A) (A) (A) (A) (A) (A) (A) (A) (A)
                 (A) (A) (A) (A) (A) (A) (A) (A) (A) (A) (A) (A)
                 (A) (A) (A) (A) (A) (A) (A) (A) (A) (A) (A) (A)
                 (A) (A) (A) (A)
    24 initial guesses have been made.
 Convergence on wavefunction:    0.001000000000000
 Davidson Disk Diagonalization:  ConvIn= 1.00D-03 SkipCon=T Conv= 1.00D-03.
 Max sub-space:  2000 roots to seek:    24 dimension of matrix:        23104
 Iteration     1 Dimension    24 NMult     0 NNew     24
 CISAX will form    24 AO SS matrices at one time.
 NMat=    24 NSing=    24 JSym2X= 0.
 FoFJK:  IHMeth= 1 ICntrl=       0 DoSepK=T KAlg= 0 I1Cent=           0 FoldK=F
 IRaf=         1 NMat=      48 IRICut=       1 DoRegI=T DoRafI=F ISym2E= 0 IDoP0=3 IntGTp=3.
 FoFCou: FMM=F IPFlag=           0 FMFlag=      100000 FMFlg1=           0
         NFxFlg=           0 DoJE=F BraDBF=F KetDBF=F FulRan=T
         wScrn=  0.000000 ICntrl=       500 IOpCl=  0 I1Cent=           0 NGrid=           0
         NMat0=   24 NMatS0=     24 NMatT0=    0 NMatD0=   24 NMtDS0=    0 NMtDT0=    0
 Symmetry not used in FoFCou.
 New state      2 was old state      3
 New state      3 was old state      4
 New state      4 was old state      2
 New state      5 was old state      6
 New state      6 was old state      5
 Excitation Energies [eV] at current iteration:
 Root      1 :     3.562793242905578
 Root      2 :     4.219693476378315
 Root      3 :     4.424027708195497
 Root      4 :     5.361164225189198
 Root      5 :     5.957120211199773
 Root      6 :     6.139079906965155
 Root      7 :     6.525082720619807
 Root      8 :     6.723129554255445
 Root      9 :     6.883520332339210
 Root     10 :     6.983275832999836
 Root     11 :     7.136304037936180
 Root     12 :     7.303920685915145
 Root     13 :     7.409277796037762
 Root     14 :     7.474551116209538
 Root     15 :     7.713214528152415
 Root     16 :     7.918806265843708
 Root     17 :     8.033902895560988
 Root     18 :     8.121129689380007
 Root     19 :     8.217970125884003
 Root     20 :     8.317769373449741
 Root     21 :     8.435129864744857
 Root     22 :     8.596330888540264
 Root     23 :     8.689472060729271
 Root     24 :     8.856557510568873
 Iteration     2 Dimension    36 NMult    24 NNew     12
 CISAX will form    12 AO SS matrices at one time.
 NMat=    12 NSing=    12 JSym2X= 0.
 Root      1 not converged, maximum delta is    0.044261709978895
 Root      2 not converged, maximum delta is    0.075819499708935
 Root      3 not converged, maximum delta is    0.092286403315683
 Root      4 not converged, maximum delta is    0.329198217197380
 New state      5 was old state      6
 Root      5 not converged, maximum delta is    0.319064030832102
 New state      6 was old state      5
 Root      6 not converged, maximum delta is    0.145448375641237
 Excitation Energies [eV] at current iteration:
 Root      1 :     3.127901809343164   Change is   -0.434891433562414
 Root      2 :     3.999022173319022   Change is   -0.220671303059293
 Root      3 :     4.160588985036845   Change is   -0.263438723158652
 Root      4 :     4.960443942973178   Change is   -0.400720282216019
 Root      5 :     5.417297438515202   Change is   -0.721782468449953
 Root      6 :     5.851149512008758   Change is   -0.105970699191015
 Iteration     3 Dimension    48 NMult    36 NNew     12
 CISAX will form    12 AO SS matrices at one time.
 NMat=    12 NSing=    12 JSym2X= 0.
 Root      1 not converged, maximum delta is    0.006809519363375
 Root      2 not converged, maximum delta is    0.016017051111902
 Root      3 not converged, maximum delta is    0.013578650693373
 Root      4 not converged, maximum delta is    0.014484496489083
 Root      5 not converged, maximum delta is    0.015004875880211
 Root      6 not converged, maximum delta is    0.006564725908345
 Excitation Energies [eV] at current iteration:
 Root      1 :     3.113090566074670   Change is   -0.014811243268493
 Root      2 :     3.986326683651849   Change is   -0.012695489667173
 Root      3 :     4.146775565356913   Change is   -0.013813419679931
 Root      4 :     4.940603053087572   Change is   -0.019840889885607
 Root      5 :     5.398247055861823   Change is   -0.019050382653380
 Root      6 :     5.846543715865565   Change is   -0.004605796143193
 Iteration     4 Dimension    60 NMult    48 NNew     12
 CISAX will form    12 AO SS matrices at one time.
 NMat=    12 NSing=    12 JSym2X= 0.
 Root      1 not converged, maximum delta is    0.002237737873129
 Root      2 not converged, maximum delta is    0.001858521384168
 Root      3 not converged, maximum delta is    0.002334799493930
 Root      4 not converged, maximum delta is    0.002833609115286
 Root      5 not converged, maximum delta is    0.002789523903896
 Root      6 not converged, maximum delta is    0.001949019641524
 Excitation Energies [eV] at current iteration:
 Root      1 :     3.111919804486015   Change is   -0.001170761588656
 Root      2 :     3.985666975954932   Change is   -0.000659707696917
 Root      3 :     4.145843263673552   Change is   -0.000932301683361
 Root      4 :     4.938828465011890   Change is   -0.001774588075681
 Root      5 :     5.396373918226764   Change is   -0.001873137635059
 Root      6 :     5.846241432579675   Change is   -0.000302283285889
 Iteration     5 Dimension    72 NMult    60 NNew     12
 CISAX will form    12 AO SS matrices at one time.
 NMat=    12 NSing=    12 JSym2X= 0.
 Root      1 has converged.
 Root      2 has converged.
 Root      3 has converged.
 Root      4 has converged.
 Root      5 not converged, maximum delta is    0.001097320737133
 Root      6 has converged.
 Excitation Energies [eV] at current iteration:
 Root      1 :     3.111867386762892   Change is   -0.000052417723123
 Root      2 :     3.985626446861854   Change is   -0.000040529093078
 Root      3 :     4.145800666975900   Change is   -0.000042596697653
 Root      4 :     4.938704180688905   Change is   -0.000124284322985
 Root      5 :     5.396223965920868   Change is   -0.000149952305896
 Root      6 :     5.846219007225047   Change is   -0.000022425354628
 Iteration     6 Dimension    74 NMult    72 NNew      2
 CISAX will form     2 AO SS matrices at one time.
 NMat=     2 NSing=     2 JSym2X= 0.
 Root      1 has converged.
 Root      2 has converged.
 Root      3 has converged.
 Root      4 has converged.
 Root      5 has converged.
 Root      6 has converged.
 Excitation Energies [eV] at current iteration:
 Root      1 :     3.111867354745741   Change is   -0.000000032017150
 Root      2 :     3.985626392061449   Change is   -0.000000054800405
 Root      3 :     4.145800578804297   Change is   -0.000000088171602
 Root      4 :     4.938701868679051   Change is   -0.000002312009854
 Root      5 :     5.396210208355383   Change is   -0.000013757565485
 Root      6 :     5.846218926759827   Change is   -0.000000080465221
 Convergence achieved on expansion vectors.
 ***********************************************************************
 Excited states from <AA,BB:AA,BB> singles matrix:
 ***********************************************************************
 
 1PDM for each excited state written to RWF  633
 Ground to excited state transition densities written to RWF  633
 Ground to excited state transition electric dipole moments (Au):
       state          X           Y           Z        Dip. S.      Osc.
         1        -1.6244      0.1874      0.0503      2.6763      0.2040
         2        -0.0564     -0.0321      0.0388      0.0057      0.0006
         3        -0.0462      0.1231     -0.0280      0.0181      0.0018
         4        -0.1946     -1.7356      0.0821      3.0570      0.3699
         5        -0.0651     -1.5243      0.0098      2.3279      0.3078
         6         0.0231      0.2268      0.0518      0.0547      0.0078
 Ground to excited state transition velocity dipole moments (Au):
       state          X           Y           Z        Dip. S.      Osc.
         1         0.1782     -0.0170     -0.0062      0.0321      0.1871
         2         0.0078      0.0051     -0.0026      0.0001      0.0004
         3         0.0066     -0.0168      0.0008      0.0003      0.0014
         4         0.0392      0.3013     -0.0112      0.0925      0.3397
         5         0.0134      0.2964     -0.0030      0.0880      0.2960
         6        -0.0060     -0.0460     -0.0311      0.0031      0.0097
 Ground to excited state transition magnetic dipole moments (Au):
       state          X           Y           Z
         1        -0.0396      0.0430     -1.4687
         2         0.7952     -0.1174     -0.1811
         3         0.1852     -0.9809     -0.2096
         4         0.0365     -0.0813      0.0715
         5         0.1434     -0.1030      0.2846
         6         0.0247     -0.0134      0.0280
 Ground to excited state transition velocity quadrupole moments (Au):
       state          XX          YY          ZZ          XY          XZ          YZ
         1        -0.1687      0.0932      0.0048     -0.5058      0.0405      0.0169
         2         0.0171     -0.0076     -0.0061     -0.0260      0.0102      0.0807
         3        -0.0115      0.0001      0.0217     -0.0624      0.0641      0.0101
         4        -1.3127      0.2873      0.0070      0.0755      0.0798     -0.0375
         5        -0.4765      0.2809      0.0400      0.2319      0.0643      0.0163
         6        -0.1698     -0.1705      0.1465      0.0155      0.0305      0.0937
 <0|del|b> * <b|rxdel|0> + <0|del|b> * <b|delr+rdel|0>
 Rotatory Strengths (R) in cgs (10**-40 erg-esu-cm/Gauss)
       state          XX          YY          ZZ    R(velocity)    E-M Angle
         1        37.7395      5.9624    -35.5724      2.7098       89.71
         2        -0.2467     17.5037     12.1720      9.8097       40.07
         3        40.1963      2.7188     38.4073     27.1075       18.01
         4       -97.7989      0.0191      4.7517    -31.0094      133.40
         5       -91.1815      3.5370    -17.4411    -35.0285      107.25
         6         1.1024     -1.8046     -0.6153     -0.4392      100.41
 1/2[<0|r|b>*<b|rxdel|0> + (<0|rxdel|b>*<b|r|0>)*]
 Rotatory Strengths (R) in cgs (10**-40 erg-esu-cm/Gauss)
       state          XX          YY          ZZ     R(length)
         1       -45.5349     -5.6997     52.2527      0.3394
         2        31.7159     -2.6617      4.9689     11.3410
         3         6.0506     85.4123     -4.1516     29.1038
         4         5.0275    -99.8092     -4.1526    -32.9781
         5         6.6032   -111.0593     -1.9687    -35.4749
         6        -0.4034      2.1544     -1.0264      0.2415
  1/2[<0|del|b>*<b|r|0> + (<0|r|b>*<b|del|0>)*] (Au)
       state          X           Y           Z        Dip. S.   Osc.(frdel)
         1        -0.2895     -0.0032     -0.0003      0.2930      0.1954
         2        -0.0004     -0.0002     -0.0001      0.0007      0.0005
         3        -0.0003     -0.0021     -0.0000      0.0024      0.0016
         4        -0.0076     -0.5230     -0.0009      0.5316      0.3544
         5        -0.0009     -0.4518     -0.0000      0.4527      0.3018
         6        -0.0001     -0.0104     -0.0016      0.0122      0.0081

 Excitation energies and oscillator strengths:
 
 Excited State   1:      Singlet-A      3.1119 eV  398.42 nm  f=0.2040  <S**2>=0.000
      52 -> 53         0.70089
 This state for optimization and/or second-order correction.
 Total Energy, E(TD-HF/TD-DFT) =  -633.210466196    
 Copying the excited state density for this state as the 1-particle RhoCI density.
 
 Excited State   2:      Singlet-A      3.9856 eV  311.08 nm  f=0.0006  <S**2>=0.000
      50 -> 54         0.17782
      51 -> 53         0.58029
      51 -> 54         0.31976
 
 Excited State   3:      Singlet-A      4.1458 eV  299.06 nm  f=0.0018  <S**2>=0.000
      49 -> 53         0.23186
      49 -> 54        -0.14283
      50 -> 53         0.54054
      50 -> 54        -0.25140
      50 -> 58         0.11351
      51 -> 54         0.20177
 
 Excited State   4:      Singlet-A      4.9387 eV  251.05 nm  f=0.3699  <S**2>=0.000
      52 -> 54         0.69545
 
 Excited State   5:      Singlet-A      5.3962 eV  229.76 nm  f=0.3078  <S**2>=0.000
      49 -> 53         0.62503
      50 -> 53        -0.27255
      51 -> 53         0.10634
 
 Excited State   6:      Singlet-A      5.8462 eV  212.08 nm  f=0.0078  <S**2>=0.000
      52 -> 55         0.65207
      52 -> 56         0.16632
      52 -> 57         0.10776
 SavETr:  write IOETrn=   770 NScale= 10 NData=  16 NLR=1 NState=    6 LETran=     118.
 Leave Link  914 at Fri Jan 23 15:47:29 2026, MaxMem=  2147483648 cpu:            2051.5 elap:             128.7
 (Enter /data/home/wyx/g16/l601.exe)
 Copying SCF densities to generalized density rwf, IOpCl= 0 IROHF=0.

 **********************************************************************

            Population analysis using the SCF density.

 **********************************************************************

 Orbital symmetries:
       Occupied  (A) (A) (A) (A) (A) (A) (A) (A) (A) (A) (A) (A)
                 (A) (A) (A) (A) (A) (A) (A) (A) (A) (A) (A) (A)
                 (A) (A) (A) (A) (A) (A) (A) (A) (A) (A) (A) (A)
                 (A) (A) (A) (A) (A) (A) (A) (A) (A) (A) (A) (A)
                 (A) (A) (A) (A)
       Virtual   (A) (A) (A) (A) (A) (A) (A) (A) (A) (A) (A) (A)
                 (A) (A) (A) (A) (A) (A) (A) (A) (A) (A) (A) (A)
                 (A) (A) (A) (A) (A) (A) (A) (A) (A) (A) (A) (A)
                 (A) (A) (A) (A) (A) (A) (A) (A) (A) (A) (A) (A)
                 (A) (A) (A) (A) (A) (A) (A) (A) (A) (A) (A) (A)
                 (A) (A) (A) (A) (A) (A) (A) (A) (A) (A) (A) (A)
                 (A) (A) (A) (A) (A) (A) (A) (A) (A) (A) (A) (A)
                 (A) (A) (A) (A) (A) (A) (A) (A) (A) (A) (A) (A)
                 (A) (A) (A) (A) (A) (A) (A) (A) (A) (A) (A) (A)
                 (A) (A) (A) (A) (A) (A) (A) (A) (A) (A) (A) (A)
                 (A) (A) (A) (A) (A) (A) (A) (A) (A) (A) (A) (A)
                 (A) (A) (A) (A) (A) (A) (A) (A) (A) (A) (A) (A)
                 (A) (A) (A) (A) (A) (A) (A) (A) (A) (A) (A) (A)
                 (A) (A) (A) (A) (A) (A) (A) (A) (A) (A) (A) (A)
                 (A) (A) (A) (A) (A) (A) (A) (A) (A) (A) (A) (A)
                 (A) (A) (A) (A) (A) (A) (A) (A) (A) (A) (A) (A)
                 (A) (A) (A) (A) (A) (A) (A) (A) (A) (A) (A) (A)
                 (A) (A) (A) (A) (A) (A) (A) (A) (A) (A) (A) (A)
                 (A) (A) (A) (A) (A) (A) (A) (A) (A) (A) (A) (A)
                 (A) (A) (A) (A) (A) (A) (A) (A) (A) (A) (A) (A)
                 (A) (A) (A) (A) (A) (A) (A) (A) (A) (A) (A) (A)
                 (A) (A) (A) (A) (A) (A) (A) (A) (A) (A) (A) (A)
                 (A) (A) (A) (A) (A) (A) (A) (A) (A) (A) (A) (A)
                 (A) (A) (A) (A) (A) (A) (A) (A) (A) (A) (A) (A)
                 (A) (A) (A) (A) (A) (A) (A) (A) (A) (A) (A) (A)
                 (A) (A) (A) (A)
 The electronic state is 1-A.
 Alpha  occ. eigenvalues --  -19.17813 -19.17020 -14.44557 -10.33363 -10.32813
 Alpha  occ. eigenvalues --  -10.32557 -10.31937 -10.26106 -10.25270 -10.24938
 Alpha  occ. eigenvalues --  -10.24599 -10.24534 -10.24230 -10.23568  -1.11613
 Alpha  occ. eigenvalues --   -1.11116  -1.08206  -0.91424  -0.90465  -0.83951
 Alpha  occ. eigenvalues --   -0.82671  -0.81695  -0.78571  -0.73932  -0.71874
 Alpha  occ. eigenvalues --   -0.68680  -0.61632  -0.58315  -0.56963  -0.55192
 Alpha  occ. eigenvalues --   -0.54662  -0.54019  -0.52574  -0.51855  -0.50866
 Alpha  occ. eigenvalues --   -0.49800  -0.49541  -0.49276  -0.48670  -0.48095
 Alpha  occ. eigenvalues --   -0.47099  -0.45266  -0.45191  -0.43815  -0.43204
 Alpha  occ. eigenvalues --   -0.42252  -0.42179  -0.41673  -0.32688  -0.32178
 Alpha  occ. eigenvalues --   -0.31147  -0.25455
 Alpha virt. eigenvalues --   -0.02918   0.02575   0.06253   0.08038   0.08428
 Alpha virt. eigenvalues --    0.09854   0.10727   0.11718   0.12552   0.13473
 Alpha virt. eigenvalues --    0.13929   0.14843   0.15600   0.16289   0.16930
 Alpha virt. eigenvalues --    0.17531   0.17846   0.18071   0.18249   0.19215
 Alpha virt. eigenvalues --    0.19902   0.22070   0.22824   0.23489   0.23818
 Alpha virt. eigenvalues --    0.23926   0.24792   0.25637   0.26198   0.26630
 Alpha virt. eigenvalues --    0.27151   0.27870   0.28696   0.29191   0.30122
 Alpha virt. eigenvalues --    0.31718   0.31938   0.32426   0.33492   0.34436
 Alpha virt. eigenvalues --    0.34881   0.35968   0.36686   0.38102   0.38476
 Alpha virt. eigenvalues --    0.39768   0.41033   0.41446   0.41945   0.42552
 Alpha virt. eigenvalues --    0.44028   0.44676   0.45562   0.46210   0.46388
 Alpha virt. eigenvalues --    0.47309   0.47753   0.48034   0.48331   0.49155
 Alpha virt. eigenvalues --    0.49525   0.50598   0.51103   0.51456   0.51612
 Alpha virt. eigenvalues --    0.52735   0.52980   0.53391   0.53840   0.54253
 Alpha virt. eigenvalues --    0.54478   0.55534   0.56049   0.56697   0.58338
 Alpha virt. eigenvalues --    0.58529   0.59658   0.61011   0.61305   0.62941
 Alpha virt. eigenvalues --    0.63796   0.65481   0.66442   0.66646   0.67834
 Alpha virt. eigenvalues --    0.68622   0.69766   0.71098   0.71748   0.72365
 Alpha virt. eigenvalues --    0.73185   0.74282   0.74857   0.75889   0.77793
 Alpha virt. eigenvalues --    0.78908   0.80037   0.82917   0.85879   0.86863
 Alpha virt. eigenvalues --    0.90500   0.94638   1.01521   1.03360   1.22836
 Alpha virt. eigenvalues --    1.24859   1.27172   1.28198   1.29433   1.30993
 Alpha virt. eigenvalues --    1.32378   1.32866   1.34221   1.34929   1.36196
 Alpha virt. eigenvalues --    1.36533   1.37641   1.38430   1.38970   1.39867
 Alpha virt. eigenvalues --    1.39908   1.40579   1.40725   1.41361   1.41861
 Alpha virt. eigenvalues --    1.43492   1.43748   1.44261   1.45230   1.47362
 Alpha virt. eigenvalues --    1.48026   1.49552   1.49914   1.50321   1.50905
 Alpha virt. eigenvalues --    1.51323   1.52593   1.52658   1.55068   1.58134
 Alpha virt. eigenvalues --    1.58900   1.60534   1.60798   1.61444   1.62563
 Alpha virt. eigenvalues --    1.62704   1.63254   1.64118   1.64467   1.65880
 Alpha virt. eigenvalues --    1.66676   1.67111   1.67632   1.68089   1.68471
 Alpha virt. eigenvalues --    1.69005   1.69900   1.70131   1.71342   1.72401
 Alpha virt. eigenvalues --    1.73983   1.75036   1.75966   1.76612   1.78624
 Alpha virt. eigenvalues --    1.81056   1.82886   1.84083   1.86003   1.86568
 Alpha virt. eigenvalues --    1.86720   1.87947   1.88578   1.88932   1.90407
 Alpha virt. eigenvalues --    1.91246   1.94582   1.95103   1.98987   1.99776
 Alpha virt. eigenvalues --    2.01391   2.03921   2.05336   2.06815   2.09598
 Alpha virt. eigenvalues --    2.10741   2.12232   2.15364   2.17438   2.19708
 Alpha virt. eigenvalues --    2.20238   2.21339   2.22033   2.23033   2.26292
 Alpha virt. eigenvalues --    2.27247   2.27589   2.29382   2.31349   2.32351
 Alpha virt. eigenvalues --    2.33878   2.34321   2.36884   2.37960   2.38739
 Alpha virt. eigenvalues --    2.39607   2.40317   2.41555   2.43050   2.45031
 Alpha virt. eigenvalues --    2.46055   2.48011   2.49787   2.50427   2.51332
 Alpha virt. eigenvalues --    2.52342   2.54147   2.54908   2.56641   2.57797
 Alpha virt. eigenvalues --    2.58904   2.60781   2.61750   2.62604   2.63306
 Alpha virt. eigenvalues --    2.64659   2.65837   2.66738   2.67437   2.68600
 Alpha virt. eigenvalues --    2.71881   2.72103   2.73493   2.74440   2.75408
 Alpha virt. eigenvalues --    2.75957   2.76844   2.77364   2.78126   2.79219
 Alpha virt. eigenvalues --    2.80710   2.81995   2.83215   2.84140   2.84547
 Alpha virt. eigenvalues --    2.85595   2.86519   2.88619   2.89601   2.91960
 Alpha virt. eigenvalues --    2.97598   2.99409   3.00785   3.06075   3.10829
 Alpha virt. eigenvalues --    3.12431   3.15150   3.17506   3.18638   3.21455
 Alpha virt. eigenvalues --    3.21742   3.23796   3.24587   3.25961   3.27053
 Alpha virt. eigenvalues --    3.27981   3.30102   3.33103   3.34552   3.36666
 Alpha virt. eigenvalues --    3.37776   3.38881   3.39733   3.40107   3.41974
 Alpha virt. eigenvalues --    3.42316   3.44478   3.45317   3.47663   3.48419
 Alpha virt. eigenvalues --    3.49529   3.49966   3.55489   3.58558   3.60124
 Alpha virt. eigenvalues --    3.60944   3.90901   4.00518   4.33760   4.36550
 Alpha virt. eigenvalues --   21.66468  21.80571  22.08349  22.10775  22.11842
 Alpha virt. eigenvalues --   22.15071  22.15331  22.18834  22.19828  22.24897
 Alpha virt. eigenvalues --   22.28585  31.91990  43.63745  43.66518
          Condensed to atoms (all electrons):
               1          2          3          4          5          6
     1  O    7.931171   0.000000  -0.000199   0.000019   0.018760   0.011578
     2  O    0.000000   7.974226   0.000434   0.000022  -0.196642   0.001215
     3  N   -0.000199   0.000434   6.381221   0.370988  -0.119911   0.327701
     4  H    0.000019   0.000022   0.370988   0.411827   0.016574  -0.046588
     5  C    0.018760  -0.196642  -0.119911   0.016574   7.106912  -0.076791
     6  C    0.011578   0.001215   0.327701  -0.046588  -0.076791   5.588490
     7  C   -0.000221  -0.044443   0.389627  -0.037948   0.443770  -0.117908
     8  C   -0.000538   0.707628   0.004402  -0.000791  -0.308885   0.031120
     9  C   -0.010571   0.023844   0.012633  -0.000034  -0.649682  -0.062634
    10  H    0.010921  -0.000009  -0.001314   0.000021  -0.118830   0.027887
    11  H    0.006187   0.000128   0.003794   0.000030  -0.043936  -0.019454
    12  C   -0.227618  -0.002853  -0.088985   0.014615   0.182529  -0.114449
    13  C    0.714844  -0.000020   0.001428   0.000515   0.081309   0.142401
    14  C   -0.000008  -0.005726  -0.033860  -0.010104  -0.084669   0.011167
    15  H   -0.000000   0.004238   0.004373   0.001979   0.020369   0.006474
    16  H   -0.000000   0.002024   0.000197   0.000787  -0.006913  -0.001098
    17  H   -0.000000   0.002615  -0.002434   0.000922  -0.007361  -0.001584
    18  C    0.000160  -0.103348  -0.000521   0.000021  -0.261745   0.000243
    19  H   -0.000002   0.008195   0.000004  -0.000001   0.024134   0.000022
    20  H    0.000126   0.004025   0.000118   0.000001   0.044780  -0.001220
    21  H    0.000002   0.000858   0.000012  -0.000001   0.003176   0.000220
    22  C   -0.106029   0.000000  -0.000132   0.000120   0.004299  -0.019149
    23  H    0.001344   0.000000   0.000001  -0.000013  -0.000034   0.009854
    24  H    0.004933  -0.000000   0.000094  -0.000055  -0.000688  -0.029225
    25  H    0.006929   0.000000   0.000025  -0.000003  -0.000152  -0.000921
    26  C    0.000854   0.000008  -0.027085  -0.006293   0.000486   0.185614
    27  H   -0.000051  -0.000000  -0.002520   0.000472   0.000384  -0.033802
    28  H   -0.000244  -0.000000   0.001764   0.000782   0.000007  -0.046246
    29  H    0.000024   0.000000   0.001586   0.001680  -0.000387  -0.049993
               7          8          9         10         11         12
     1  O   -0.000221  -0.000538  -0.010571   0.010921   0.006187  -0.227618
     2  O   -0.044443   0.707628   0.023844  -0.000009   0.000128  -0.002853
     3  N    0.389627   0.004402   0.012633  -0.001314   0.003794  -0.088985
     4  H   -0.037948  -0.000791  -0.000034   0.000021   0.000030   0.014615
     5  C    0.443770  -0.308885  -0.649682  -0.118830  -0.043936   0.182529
     6  C   -0.117908   0.031120  -0.062634   0.027887  -0.019454  -0.114449
     7  C    5.406051  -0.219581  -0.202415   0.017137  -0.006383   0.019139
     8  C   -0.219581   5.384613   0.166341  -0.009590  -0.002548  -0.045102
     9  C   -0.202415   0.166341   6.393771   0.542631   0.404033  -0.097218
    10  H    0.017137  -0.009590   0.542631   0.523056  -0.044512  -0.110848
    11  H   -0.006383  -0.002548   0.404033  -0.044512   0.573633  -0.013457
    12  C    0.019139  -0.045102  -0.097218  -0.110848  -0.013457   7.347197
    13  C    0.016422  -0.008120  -0.249363  -0.001279  -0.004718  -0.452766
    14  C    0.281327  -0.032514   0.008051   0.000543  -0.001080  -0.001903
    15  H   -0.083409   0.005481   0.000502  -0.000004   0.000052  -0.001485
    16  H   -0.025093  -0.007071  -0.000443  -0.000054   0.000186   0.000092
    17  H   -0.020302  -0.001849   0.000834   0.000057  -0.000063   0.000536
    18  C   -0.000024   0.323763   0.001371   0.007691  -0.011804  -0.002357
    19  H    0.000317  -0.052703  -0.001490   0.000597   0.000047  -0.000175
    20  H    0.003075  -0.068986  -0.009265  -0.006682   0.002797   0.007366
    21  H   -0.000096  -0.024602  -0.009459  -0.001178   0.000799  -0.002901
    22  C    0.000101  -0.000069   0.007911  -0.000319   0.002574  -0.255541
    23  H    0.000001   0.000002  -0.002258  -0.000122   0.000172  -0.011343
    24  H   -0.000008   0.000001   0.003170   0.000031  -0.000184   0.066311
    25  H    0.000009   0.000003   0.000185  -0.000075  -0.000074   0.020858
    26  C    0.002735   0.000710   0.022001   0.000105  -0.000731  -0.083211
    27  H   -0.000817  -0.000013  -0.000341   0.000042  -0.000015  -0.018481
    28  H   -0.000734   0.000002  -0.000332   0.000011  -0.000109  -0.007649
    29  H    0.003288  -0.000005  -0.000575  -0.000014   0.000096   0.023437
              13         14         15         16         17         18
     1  O    0.714844  -0.000008  -0.000000  -0.000000  -0.000000   0.000160
     2  O   -0.000020  -0.005726   0.004238   0.002024   0.002615  -0.103348
     3  N    0.001428  -0.033860   0.004373   0.000197  -0.002434  -0.000521
     4  H    0.000515  -0.010104   0.001979   0.000787   0.000922   0.000021
     5  C    0.081309  -0.084669   0.020369  -0.006913  -0.007361  -0.261745
     6  C    0.142401   0.011167   0.006474  -0.001098  -0.001584   0.000243
     7  C    0.016422   0.281327  -0.083409  -0.025093  -0.020302  -0.000024
     8  C   -0.008120  -0.032514   0.005481  -0.007071  -0.001849   0.323763
     9  C   -0.249363   0.008051   0.000502  -0.000443   0.000834   0.001371
    10  H   -0.001279   0.000543  -0.000004  -0.000054   0.000057   0.007691
    11  H   -0.004718  -0.001080   0.000052   0.000186  -0.000063  -0.011804
    12  C   -0.452766  -0.001903  -0.001485   0.000092   0.000536  -0.002357
    13  C    5.518963   0.000066  -0.000036  -0.000004  -0.000010   0.001069
    14  C    0.000066   5.038723   0.389742   0.418282   0.408069   0.001415
    15  H   -0.000036   0.389742   0.581292  -0.027820  -0.026139   0.000254
    16  H   -0.000004   0.418282  -0.027820   0.508181  -0.026023  -0.000193
    17  H   -0.000010   0.408069  -0.026139  -0.026023   0.506858   0.000037
    18  C    0.001069   0.001415   0.000254  -0.000193   0.000037   5.330458
    19  H   -0.000012   0.000043  -0.000005   0.000036  -0.000031   0.395010
    20  H    0.000745   0.000068  -0.000015  -0.000033   0.000002   0.379605
    21  H   -0.000132  -0.000235  -0.000005   0.000016  -0.000007   0.399081
    22  C    0.285816  -0.000016   0.000002  -0.000000   0.000000   0.000034
    23  H   -0.022404  -0.000001   0.000000  -0.000000   0.000000  -0.000002
    24  H   -0.097067   0.000002   0.000000   0.000000   0.000000   0.000002
    25  H   -0.037135   0.000000   0.000000   0.000000  -0.000000  -0.000001
    26  C   -0.054211   0.000877   0.000201   0.000036  -0.000114   0.000015
    27  H    0.006634  -0.000111  -0.000002   0.000004  -0.000007  -0.000000
    28  H   -0.003267   0.000073  -0.000010  -0.000002   0.000001  -0.000000
    29  H   -0.001076  -0.000193   0.000105  -0.000003   0.000001   0.000000
              19         20         21         22         23         24
     1  O   -0.000002   0.000126   0.000002  -0.106029   0.001344   0.004933
     2  O    0.008195   0.004025   0.000858   0.000000   0.000000  -0.000000
     3  N    0.000004   0.000118   0.000012  -0.000132   0.000001   0.000094
     4  H   -0.000001   0.000001  -0.000001   0.000120  -0.000013  -0.000055
     5  C    0.024134   0.044780   0.003176   0.004299  -0.000034  -0.000688
     6  C    0.000022  -0.001220   0.000220  -0.019149   0.009854  -0.029225
     7  C    0.000317   0.003075  -0.000096   0.000101   0.000001  -0.000008
     8  C   -0.052703  -0.068986  -0.024602  -0.000069   0.000002   0.000001
     9  C   -0.001490  -0.009265  -0.009459   0.007911  -0.002258   0.003170
    10  H    0.000597  -0.006682  -0.001178  -0.000319  -0.000122   0.000031
    11  H    0.000047   0.002797   0.000799   0.002574   0.000172  -0.000184
    12  C   -0.000175   0.007366  -0.002901  -0.255541  -0.011343   0.066311
    13  C   -0.000012   0.000745  -0.000132   0.285816  -0.022404  -0.097067
    14  C    0.000043   0.000068  -0.000235  -0.000016  -0.000001   0.000002
    15  H   -0.000005  -0.000015  -0.000005   0.000002   0.000000   0.000000
    16  H    0.000036  -0.000033   0.000016  -0.000000  -0.000000   0.000000
    17  H   -0.000031   0.000002  -0.000007   0.000000   0.000000   0.000000
    18  C    0.395010   0.379605   0.399081   0.000034  -0.000002   0.000002
    19  H    0.506242  -0.024166  -0.009751  -0.000000   0.000000   0.000000
    20  H   -0.024166   0.540466  -0.024601   0.000026  -0.000000  -0.000000
    21  H   -0.009751  -0.024601   0.494929  -0.000013   0.000000   0.000000
    22  C   -0.000000   0.000026  -0.000013   5.424093   0.400894   0.396995
    23  H    0.000000  -0.000000   0.000000   0.400894   0.494689  -0.027718
    24  H    0.000000  -0.000000   0.000000   0.396995  -0.027718   0.546664
    25  H   -0.000000  -0.000000   0.000000   0.383712  -0.007792  -0.022347
    26  C    0.000000  -0.000017   0.000004  -0.030795  -0.012025   0.016682
    27  H    0.000000  -0.000000  -0.000000  -0.010880   0.000976  -0.001696
    28  H   -0.000000  -0.000000   0.000000   0.005804  -0.000113  -0.008330
    29  H    0.000000   0.000000  -0.000000   0.002025   0.000189   0.000647
              25         26         27         28         29
     1  O    0.006929   0.000854  -0.000051  -0.000244   0.000024
     2  O    0.000000   0.000008  -0.000000  -0.000000   0.000000
     3  N    0.000025  -0.027085  -0.002520   0.001764   0.001586
     4  H   -0.000003  -0.006293   0.000472   0.000782   0.001680
     5  C   -0.000152   0.000486   0.000384   0.000007  -0.000387
     6  C   -0.000921   0.185614  -0.033802  -0.046246  -0.049993
     7  C    0.000009   0.002735  -0.000817  -0.000734   0.003288
     8  C    0.000003   0.000710  -0.000013   0.000002  -0.000005
     9  C    0.000185   0.022001  -0.000341  -0.000332  -0.000575
    10  H   -0.000075   0.000105   0.000042   0.000011  -0.000014
    11  H   -0.000074  -0.000731  -0.000015  -0.000109   0.000096
    12  C    0.020858  -0.083211  -0.018481  -0.007649   0.023437
    13  C   -0.037135  -0.054211   0.006634  -0.003267  -0.001076
    14  C    0.000000   0.000877  -0.000111   0.000073  -0.000193
    15  H    0.000000   0.000201  -0.000002  -0.000010   0.000105
    16  H    0.000000   0.000036   0.000004  -0.000002  -0.000003
    17  H   -0.000000  -0.000114  -0.000007   0.000001   0.000001
    18  C   -0.000001   0.000015  -0.000000  -0.000000   0.000000
    19  H   -0.000000   0.000000   0.000000  -0.000000   0.000000
    20  H   -0.000000  -0.000017  -0.000000  -0.000000   0.000000
    21  H    0.000000   0.000004  -0.000000   0.000000  -0.000000
    22  C    0.383712  -0.030795  -0.010880   0.005804   0.002025
    23  H   -0.007792  -0.012025   0.000976  -0.000113   0.000189
    24  H   -0.022347   0.016682  -0.001696  -0.008330   0.000647
    25  H    0.492694   0.001856   0.000117   0.000673  -0.000038
    26  C    0.001856   5.247088   0.428124   0.429860   0.389175
    27  H    0.000117   0.428124   0.480372  -0.026803  -0.017830
    28  H    0.000673   0.429860  -0.026803   0.506722  -0.025588
    29  H   -0.000038   0.389175  -0.017830  -0.025588   0.519671
 Mulliken charges:
               1
     1  O   -0.362370
     2  O   -0.376418
     3  N   -0.223442
     4  H    0.280455
     5  C   -0.070863
     6  C    0.277076
     7  C    0.176384
     8  C    0.158900
     9  C   -0.291200
    10  H    0.164099
    11  H    0.154541
    12  C   -0.143737
    13  C    0.161406
    14  C   -0.388030
    15  H    0.123867
    16  H    0.164911
    17  H    0.165992
    18  C   -0.460233
    19  H    0.153689
    20  H    0.151785
    21  H    0.173885
    22  C   -0.491465
    23  H    0.175702
    24  H    0.151786
    25  H    0.161475
    26  C   -0.511948
    27  H    0.196244
    28  H    0.173730
    29  H    0.153780
 Sum of Mulliken charges =  -0.00000
 Mulliken charges with hydrogens summed into heavy atoms:
               1
     1  O   -0.362370
     2  O   -0.376418
     3  N    0.057013
     5  C   -0.070863
     6  C    0.277076
     7  C    0.176384
     8  C    0.158900
     9  C    0.027440
    12  C   -0.143737
    13  C    0.161406
    14  C    0.066741
    18  C    0.019126
    22  C   -0.002502
    26  C    0.011806
 Electronic spatial extent (au):  <R**2>=           3196.7821
 Charge=              0.0000 electrons
 Dipole moment (field-independent basis, Debye):
    X=              3.9651    Y=              7.3642    Z=              0.0179  Tot=              8.3638
 Quadrupole moment (field-independent basis, Debye-Ang):
   XX=            -97.8976   YY=            -78.3060   ZZ=            -84.9120
   XY=             12.2485   XZ=              4.4464   YZ=             -2.0404
 Traceless Quadrupole moment (field-independent basis, Debye-Ang):
   XX=            -10.8590   YY=              8.7326   ZZ=              2.1265
   XY=             12.2485   XZ=              4.4464   YZ=             -2.0404
 Octapole moment (field-independent basis, Debye-Ang**2):
  XXX=            108.7025  YYY=             63.2492  ZZZ=              1.5403  XYY=            -34.4929
  XXY=             31.0233  XXZ=             -6.4161  XZZ=              1.0185  YZZ=             -1.3489
  YYZ=              4.2861  XYZ=             -5.1874
 Hexadecapole moment (field-independent basis, Debye-Ang**3):
 XXXX=          -3049.4107 YYYY=          -1286.6328 ZZZZ=           -146.5878 XXXY=             33.0203
 XXXZ=             49.6589 YYYX=             87.0630 YYYZ=            -20.2440 ZZZX=             -3.5141
 ZZZY=              3.2956 XXYY=           -689.6297 XXZZ=           -481.0283 YYZZ=           -244.1883
 XXYZ=             -9.0512 YYXZ=              8.6855 ZZXY=             -0.6118
 N-N= 9.001538031984D+02 E-N=-3.276338998226D+03  KE= 6.307118564944D+02
 Leave Link  601 at Fri Jan 23 15:47:30 2026, MaxMem=  2147483648 cpu:               0.7 elap:               0.1
 (Enter /data/home/wyx/g16/l9999.exe)
 Electronic transition elements 
                 1             2             3             4             5 
      1  -0.633210D+03 -0.633178D+03 -0.633172D+03 -0.633143D+03 -0.633127D+03
      2  -0.158887D+01 -0.464952D-01 -0.810800D-01  0.386341D+00  0.445335D+00
      3  -0.369279D+00 -0.486446D-01  0.100036D+00 -0.169868D+01 -0.145711D+01
      4  -0.124333D+00  0.344441D-01 -0.387159D-01  0.149219D+00  0.798380D-01
      5   0.173232D+00  0.592935D-02  0.116894D-01 -0.623333D-01 -0.857683D-01
      6   0.438737D-01  0.734935D-02 -0.135714D-01  0.296786D+00  0.283568D+00
      7   0.127845D-01 -0.206363D-02  0.232951D-02 -0.223607D-01 -0.165403D-01
      8   0.113821D+00  0.803974D+00  0.523523D+00  0.532335D-01  0.136534D+00
      9   0.756847D-02  0.154549D+00 -0.864110D+00 -0.633269D-01 -0.449800D-01
     10  -0.146544D+01 -0.932780D-01 -0.140072D+00  0.788387D-01  0.302499D+00
     11   0.170512D+00  0.341926D-01  0.163847D-01 -0.118540D+01 -0.542858D+00
     12  -0.256125D+00 -0.191238D-01 -0.398650D-01  0.153855D+00  0.343048D+00
     13   0.149074D-01 -0.115637D-01  0.338214D-01  0.132063D-01  0.442111D-01
     14  -0.474503D+00 -0.214145D-01 -0.544460D-01 -0.443234D+00 -0.631604D-01
     15   0.576181D-01 -0.125408D-01  0.571740D-01 -0.413524D-01 -0.100473D-01
     16  -0.204574D-01  0.777019D-01  0.258931D-01 -0.606441D-01  0.259977D-01
                 6 
      1  -0.633110D+03
      2  -0.596603D-01
      3   0.222046D+00
      4   0.423678D-01
      5   0.132299D-01
      6  -0.457607D-01
      7  -0.291672D-01
      8   0.243987D-01
      9  -0.398045D-02
     10   0.310356D-01
     11  -0.174949D+00
     12  -0.157956D+00
     13   0.139063D+00
     14   0.539819D-03
     15  -0.390424D-01
     16   0.103232D+00
 1\1\GINC-CN012\SP\RCAM-B3LYP TD-FC\TZVP\C11H15N1O2\WYX\23-Jan-2026\0\\
 #p CAM-B3LYP TZVP em=gd3bj td(Eqsolv,nstates=6,root=1) scrf=(Solvent=T
 etraHydroFuran) Geom=Check Guess=Read\\Title Card Required\\0,1\O,0,2.
 838465,-1.570358,0.07902\O,0,-3.4266,-1.638653,-0.062623\N,0,-0.653994
 ,1.515412,-0.250937\H,0,-0.964881,2.474722,-0.302122\C,0,-1.244676,-0.
 760561,-0.209157\C,0,0.686978,1.32176,-0.053511\C,0,-1.62836,0.566784,
 -0.257947\C,0,-2.216337,-1.839589,-0.152746\C,0,0.203507,-1.092919,-0.
 249185\H,0,0.428903,-1.913571,0.436692\H,0,0.461299,-1.528391,-1.22905
 6\C,0,1.148878,0.024885,0.021429\C,0,2.516298,-0.398923,0.29022\C,0,-3
 .016382,1.099118,-0.330496\H,0,-3.016773,2.174666,-0.498146\H,0,-3.579
 167,0.623799,-1.126949\H,0,-3.561889,0.896921,0.587044\C,0,-1.717988,-
 3.258967,-0.187447\H,0,-2.542786,-3.926465,-0.409669\H,0,-0.930823,-3.
 41539,-0.918743\H,0,-1.310522,-3.54344,0.781541\C,0,3.553956,0.533416,
 0.866513\H,0,4.063063,1.078634,0.069273\H,0,3.139936,1.257691,1.563139
 \H,0,4.296261,-0.075783,1.377367\C,0,1.46814,2.591157,0.028066\H,0,1.6
 45233,2.895303,1.059564\H,0,2.430542,2.505552,-0.462774\H,0,0.929718,3
 .403189,-0.458361\\Version=ES64L-G16RevA.03\State=1-A\HF=-633.3248252\
 RMSD=2.976e-09\PG=C01 [X(C11H15N1O2)]\\@


 HE WHO LAUGHS LAST PROBABLY DIDN'T GET THE JOKE.
 Job cpu time:       0 days  0 hours 35 minutes 48.3 seconds.
 Elapsed time:       0 days  0 hours  2 minutes 15.2 seconds.
 File lengths (MBytes):  RWF=    736 Int=      0 D2E=      0 Chk=     67 Scr=      1
 Normal termination of Gaussian 16 at Fri Jan 23 15:47:35 2026.
