 Entering Gaussian System, Link 0=g16
 Input=DDL-S2-cLR-12.gjf
 Output=DDL-S2-cLR-12.log
 Initial command:
 /data/home/wyx/g16/l1.exe "/scr/tmp/wyx/13106/Gau-1979416.inp" -scrdir="/scr/tmp/wyx/13106/"
 Entering Link 1 = /data/home/wyx/g16/l1.exe PID=   1979417.
  
 Copyright (c) 1988,1990,1992,1993,1995,1998,2003,2009,2016,
            Gaussian, Inc.  All Rights Reserved.
  
 This is part of the Gaussian(R) 16 program.  It is based on
 the Gaussian(R) 09 system (copyright 2009, Gaussian, Inc.),
 the Gaussian(R) 03 system (copyright 2003, Gaussian, Inc.),
 the Gaussian(R) 98 system (copyright 1998, Gaussian, Inc.),
 the Gaussian(R) 94 system (copyright 1995, Gaussian, Inc.),
 the Gaussian 92(TM) system (copyright 1992, Gaussian, Inc.),
 the Gaussian 90(TM) system (copyright 1990, Gaussian, Inc.),
 the Gaussian 88(TM) system (copyright 1988, Gaussian, Inc.),
 the Gaussian 86(TM) system (copyright 1986, Carnegie Mellon
 University), and the Gaussian 82(TM) system (copyright 1983,
 Carnegie Mellon University). Gaussian is a federally registered
 trademark of Gaussian, Inc.
  
 This software contains proprietary and confidential information,
 including trade secrets, belonging to Gaussian, Inc.
  
 This software is provided under written license and may be
 used, copied, transmitted, or stored only in accord with that
 written license.
  
 The following legend is applicable only to US Government
 contracts under FAR:
  
                    RESTRICTED RIGHTS LEGEND
  
 Use, reproduction and disclosure by the US Government is
 subject to restrictions as set forth in subparagraphs (a)
 and (c) of the Commercial Computer Software - Restricted
 Rights clause in FAR 52.227-19.
  
 Gaussian, Inc.
 340 Quinnipiac St., Bldg. 40, Wallingford CT 06492
  
  
 ---------------------------------------------------------------
 Warning -- This program may not be used in any manner that
 competes with the business of Gaussian, Inc. or will provide
 assistance to any competitor of Gaussian, Inc.  The licensee
 of this program is prohibited from giving any competitor of
 Gaussian, Inc. access to this program.  By using this program,
 the user acknowledges that Gaussian, Inc. is engaged in the
 business of creating and licensing software in the field of
 computational chemistry and represents and warrants to the
 licensee that it is not a competitor of Gaussian, Inc. and that
 it will not use this program in any manner prohibited above.
 ---------------------------------------------------------------
  

 Cite this work as:
 Gaussian 16, Revision A.03,
 M. J. Frisch, G. W. Trucks, H. B. Schlegel, G. E. Scuseria, 
 M. A. Robb, J. R. Cheeseman, G. Scalmani, V. Barone, 
 G. A. Petersson, H. Nakatsuji, X. Li, M. Caricato, A. V. Marenich, 
 J. Bloino, B. G. Janesko, R. Gomperts, B. Mennucci, H. P. Hratchian, 
 J. V. Ortiz, A. F. Izmaylov, J. L. Sonnenberg, D. Williams-Young, 
 F. Ding, F. Lipparini, F. Egidi, J. Goings, B. Peng, A. Petrone, 
 T. Henderson, D. Ranasinghe, V. G. Zakrzewski, J. Gao, N. Rega, 
 G. Zheng, W. Liang, M. Hada, M. Ehara, K. Toyota, R. Fukuda, 
 J. Hasegawa, M. Ishida, T. Nakajima, Y. Honda, O. Kitao, H. Nakai, 
 T. Vreven, K. Throssell, J. A. Montgomery, Jr., J. E. Peralta, 
 F. Ogliaro, M. J. Bearpark, J. J. Heyd, E. N. Brothers, K. N. Kudin, 
 V. N. Staroverov, T. A. Keith, R. Kobayashi, J. Normand, 
 K. Raghavachari, A. P. Rendell, J. C. Burant, S. S. Iyengar, 
 J. Tomasi, M. Cossi, J. M. Millam, M. Klene, C. Adamo, R. Cammi, 
 J. W. Ochterski, R. L. Martin, K. Morokuma, O. Farkas, 
 J. B. Foresman, and D. J. Fox, Gaussian, Inc., Wallingford CT, 2016.
 
 ******************************************
 Gaussian 16:  ES64L-G16RevA.03 25-Dec-2016
                23-Jan-2026 
 ******************************************
 %nprocshared=16
 Will use up to   16 processors via shared memory.
 %mem=16GB
 %oldchk=DDL-LR-12.chk
 %chk=DDL-S2-cLR-12.chk
 Copying data from "DDL-LR-12.chk" to current chk file "DDL-S2-cLR-12.chk"
 IOpt=  2 FromEx=T IUOpen= 4 IOptOp= 5 NList=   0 IFRang= 0 IUIn= 4 IUOut= 2.
 ----------------------------------------------------------------------
 #p CAM-B3LYP TZVP em=gd3bj td(nstates=6,root=2) scrf=(Solvent=TetraHyd
 roFuran,CorrectedLR,NonEquilibrium=Save) Geom=Check Guess=Read
 ----------------------------------------------------------------------
 1/29=2,30=1,38=1,172=1/1;
 2/12=2,40=1/2;
 3/5=19,7=101,11=9,14=-4,25=1,30=1,70=9002201,71=1,72=20,74=-40,116=-2,124=41/1,2,3,8;
 4/5=1/1;
 5/5=2,38=6,53=20/2;
 8/6=1,10=1,107=2,108=6/1;
 9/8=2,15=1,41=6,42=1,70=2,73=22/14;
 10/5=4,13=10,28=2,74=20/2;
 6/7=2,8=2,9=2,10=2,22=-1/1;
 99/5=1,9=1/99;
 Leave Link    1 at Fri Jan 23 20:44:52 2026, MaxMem=  2147483648 cpu:               0.9 elap:               0.1
 (Enter /data/home/wyx/g16/l101.exe)
 -------------------
 Title Card Required
 -------------------
 Structure from the checkpoint file:  "DDL-S2-cLR-12.chk"
 Charge =  0 Multiplicity = 1
 Z-Matrix found in chk file.
 O,0,2.836357,-1.566381,0.130446
 O,0,-3.421792,-1.626118,0.035495
 N,0,-0.64043,1.511966,-0.332319
 H,0,-0.949967,2.46982,-0.385617
 C,0,-1.239668,-0.758331,-0.219287
 C,0,0.697053,1.305756,-0.090736
 C,0,-1.616079,0.552338,-0.282568
 C,0,-2.221687,-1.831505,-0.115229
 C,0,0.215078,-1.106264,-0.323646
 H,0,0.456719,-1.94429,0.329808
 H,0,0.444809,-1.485486,-1.330139
 C,0,1.150681,0.02331,-0.003572
 C,0,2.513802,-0.395236,0.315459
 C,0,-3.00558,1.091293,-0.307278
 H,0,-3.008114,2.152041,-0.552675
 H,0,-3.620786,0.561461,-1.026322
 H,0,-3.487641,0.96226,0.658872
 C,0,-1.727244,-3.251228,-0.189604
 H,0,-2.570383,-3.922728,-0.309579
 H,0,-1.027384,-3.40283,-1.007673
 H,0,-1.203902,-3.520473,0.727154
 C,0,3.538268,0.540583,0.909717
 H,0,4.051458,1.093172,0.120607
 H,0,3.109912,1.258259,1.604516
 H,0,4.278866,-0.066402,1.425225
 C,0,1.46782,2.580997,0.032041
 H,0,1.556226,2.893582,1.072522
 H,0,2.465013,2.499853,-0.381636
 H,0,0.958596,3.38058,-0.503982
 Recover connectivity data from disk.
 ITRead=  0  0  0  0  0  0  0  0  0  0  0  0  0  0  0  0  0  0  0  0
 ITRead=  0  0  0  0  0  0  0  0  0
 MicOpt= -1 -1 -1 -1 -1 -1 -1 -1 -1 -1 -1 -1 -1 -1 -1 -1 -1 -1 -1 -1
 MicOpt= -1 -1 -1 -1 -1 -1 -1 -1 -1
 NAtoms=     29 NQM=       29 NQMF=       0 NMMI=      0 NMMIF=      0
                NMic=       0 NMicF=      0.
                    Isotopes and Nuclear Properties:
 (Nuclear quadrupole moments (NQMom) in fm**2, nuclear magnetic moments (NMagM)
  in nuclear magnetons)

  Atom         1           2           3           4           5           6           7           8           9          10
 IAtWgt=          16          16          14           1          12          12          12          12          12           1
 AtmWgt=  15.9949146  15.9949146  14.0030740   1.0078250  12.0000000  12.0000000  12.0000000  12.0000000  12.0000000   1.0078250
 NucSpn=           0           0           2           1           0           0           0           0           0           1
 AtZEff=   5.6000000   5.6000000   4.5500000   1.0000000   3.6000000   3.6000000   3.6000000   3.6000000   3.6000000   1.0000000
 NQMom=    0.0000000   0.0000000   2.0440000   0.0000000   0.0000000   0.0000000   0.0000000   0.0000000   0.0000000   0.0000000
 NMagM=    0.0000000   0.0000000   0.4037610   2.7928460   0.0000000   0.0000000   0.0000000   0.0000000   0.0000000   2.7928460
 AtZNuc=   8.0000000   8.0000000   7.0000000   1.0000000   6.0000000   6.0000000   6.0000000   6.0000000   6.0000000   1.0000000

  Atom        11          12          13          14          15          16          17          18          19          20
 IAtWgt=           1          12          12          12           1           1           1          12           1           1
 AtmWgt=   1.0078250  12.0000000  12.0000000  12.0000000   1.0078250   1.0078250   1.0078250  12.0000000   1.0078250   1.0078250
 NucSpn=           1           0           0           0           1           1           1           0           1           1
 AtZEff=   1.0000000   3.6000000   3.6000000   3.6000000   1.0000000   1.0000000   1.0000000   3.6000000   1.0000000   1.0000000
 NQMom=    0.0000000   0.0000000   0.0000000   0.0000000   0.0000000   0.0000000   0.0000000   0.0000000   0.0000000   0.0000000
 NMagM=    2.7928460   0.0000000   0.0000000   0.0000000   2.7928460   2.7928460   2.7928460   0.0000000   2.7928460   2.7928460
 AtZNuc=   1.0000000   6.0000000   6.0000000   6.0000000   1.0000000   1.0000000   1.0000000   6.0000000   1.0000000   1.0000000

  Atom        21          22          23          24          25          26          27          28          29
 IAtWgt=           1          12           1           1           1          12           1           1           1
 AtmWgt=   1.0078250  12.0000000   1.0078250   1.0078250   1.0078250  12.0000000   1.0078250   1.0078250   1.0078250
 NucSpn=           1           0           1           1           1           0           1           1           1
 AtZEff=   1.0000000   3.6000000   1.0000000   1.0000000   1.0000000   3.6000000   1.0000000   1.0000000   1.0000000
 NQMom=    0.0000000   0.0000000   0.0000000   0.0000000   0.0000000   0.0000000   0.0000000   0.0000000   0.0000000
 NMagM=    2.7928460   0.0000000   2.7928460   2.7928460   2.7928460   0.0000000   2.7928460   2.7928460   2.7928460
 AtZNuc=   1.0000000   6.0000000   1.0000000   1.0000000   1.0000000   6.0000000   1.0000000   1.0000000   1.0000000
 Leave Link  101 at Fri Jan 23 20:44:55 2026, MaxMem=  2147483648 cpu:               0.9 elap:               0.1
 (Enter /data/home/wyx/g16/l202.exe)
                          Input orientation:                          
 ---------------------------------------------------------------------
 Center     Atomic      Atomic             Coordinates (Angstroms)
 Number     Number       Type             X           Y           Z
 ---------------------------------------------------------------------
      1          8           0        2.836357   -1.566381    0.130446
      2          8           0       -3.421792   -1.626118    0.035495
      3          7           0       -0.640430    1.511966   -0.332319
      4          1           0       -0.949967    2.469820   -0.385617
      5          6           0       -1.239668   -0.758331   -0.219287
      6          6           0        0.697053    1.305756   -0.090736
      7          6           0       -1.616079    0.552338   -0.282568
      8          6           0       -2.221687   -1.831505   -0.115229
      9          6           0        0.215078   -1.106264   -0.323646
     10          1           0        0.456719   -1.944290    0.329808
     11          1           0        0.444809   -1.485486   -1.330139
     12          6           0        1.150681    0.023310   -0.003572
     13          6           0        2.513802   -0.395236    0.315459
     14          6           0       -3.005580    1.091293   -0.307278
     15          1           0       -3.008114    2.152041   -0.552675
     16          1           0       -3.620786    0.561461   -1.026322
     17          1           0       -3.487641    0.962260    0.658872
     18          6           0       -1.727244   -3.251228   -0.189604
     19          1           0       -2.570383   -3.922728   -0.309579
     20          1           0       -1.027384   -3.402830   -1.007673
     21          1           0       -1.203902   -3.520473    0.727154
     22          6           0        3.538268    0.540583    0.909717
     23          1           0        4.051458    1.093172    0.120607
     24          1           0        3.109912    1.258259    1.604516
     25          1           0        4.278866   -0.066402    1.425225
     26          6           0        1.467820    2.580997    0.032041
     27          1           0        1.556226    2.893582    1.072522
     28          1           0        2.465013    2.499853   -0.381636
     29          1           0        0.958596    3.380580   -0.503982
 ---------------------------------------------------------------------
                    Distance matrix (angstroms):
                    1          2          3          4          5
     1  O    0.000000
     2  O    6.259154   0.000000
     3  N    4.666735   4.209374   0.000000
     4  H    5.558191   4.802495   1.008037   0.000000
     5  C    4.170041   2.362125   2.350768   3.245389   0.000000
     6  C    3.588135   5.057342   1.374680   2.038302   2.833349
     7  C    4.948104   2.847356   1.369398   2.032501   1.365116
     8  C    5.070942   1.226847   3.704902   4.493526   1.458387
     9  C    2.699817   3.691349   2.754469   3.761588   1.499411
    10  H    2.417693   3.902653   3.686171   4.687746   2.141432
    11  H    2.803454   4.103089   3.340375   4.299066   2.144810
    12  C    2.320901   4.861034   2.352074   3.247167   2.524136
    13  C    1.228760   6.068338   3.742488   4.549478   3.808717
    14  C    6.432967   2.770388   2.402400   2.476291   2.558769
    15  H    6.960687   3.845980   2.462556   2.089225   3.421814
    16  H    6.896414   2.439786   3.204313   3.344490   2.839521
    17  H    6.831267   2.663200   3.064514   3.131052   2.963947
    18  C    4.875202   2.358632   4.887694   5.776934   2.540304
    19  H    5.914290   2.473538   5.767247   6.595165   3.434001
    20  H    4.426777   3.158812   4.976048   5.906011   2.767669
    21  H    4.527497   2.997667   5.173531   6.098061   2.920010
    22  C    2.353559   7.341750   4.466291   5.054117   5.078435
    23  H    2.924002   7.953065   4.732266   5.212070   5.616013
    24  H    3.197860   7.310582   4.228565   4.680932   5.129497
    25  H    2.450963   7.978985   5.457076   6.087057   5.799776
    26  C    4.368446   6.450437   2.391716   2.456113   4.306364
    27  H    4.734714   6.803218   2.950888   2.930315   4.777265
    28  H    4.115141   7.200841   3.259161   3.415114   4.936272
    29  H    5.329250   6.674268   2.465374   2.118043   4.695104
                    6          7          8          9         10
     6  C    0.000000
     7  C    2.440291   0.000000
     8  C    4.285096   2.465253   0.000000
     9  C    2.470706   2.470988   2.550928   0.000000
    10  H    3.285942   3.302219   2.717469   1.089807   0.000000
    11  H    3.064438   3.081784   2.950582   1.099824   1.722227
    12  C    1.363101   2.830666   3.850412   1.501245   2.112859
    13  C    2.521695   4.279188   4.967214   2.489608   2.575144
    14  C    3.715155   1.490569   3.032181   3.898995   4.648457
    15  H    3.828557   2.137702   4.083928   4.588897   5.437258
    16  H    4.480293   2.138248   2.917851   4.241334   4.974326
    17  H    4.265157   2.134734   3.163383   4.353649   4.910630
    18  C    5.162663   3.806326   1.505197   2.896800   2.597609
    19  H    6.169366   4.575767   2.128984   3.961245   3.672381
    20  H    5.097572   4.063950   2.166074   2.699226   2.473612
    21  H    5.251196   4.216304   2.144320   2.991002   2.323768
    22  C    3.107877   5.290461   6.313034   3.908565   4.000854
    23  H    3.367772   5.707541   6.925439   4.444400   4.710848
    24  H    2.949241   5.137548   6.397665   4.205810   4.349785
    25  H    4.124359   6.168450   6.909832   4.544693   4.397182
    26  C    1.495124   3.704709   5.753636   3.910469   4.646419
    27  H    2.147682   4.169078   6.165211   4.443729   5.016527
    28  H    2.153177   4.523046   6.387237   4.250841   4.928469
    29  H    2.131683   3.831048   6.118101   4.551605   5.413070
                   11         12         13         14         15
    11  H    0.000000
    12  C    2.129437   0.000000
    13  C    2.859610   1.461185   0.000000
    14  C    4.426197   4.302015   5.749882   0.000000
    15  H    5.075306   4.704103   6.142787   1.088766   0.000000
    16  H    4.561947   4.909432   6.352072   1.084539   1.769083
    17  H    5.041011   4.778545   6.162633   1.087418   1.764475
    18  C    3.022661   4.363446   5.137923   4.528298   5.564869
    19  H    4.009124   5.432419   6.219551   5.032873   6.095369
    20  H    2.438759   4.182179   4.830766   4.959935   5.914973
    21  H    3.330447   4.316992   4.874210   5.058110   6.088560
    22  C    4.323355   2.608110   1.509447   6.678795   6.898587
    23  H    4.664982   3.094274   2.148886   7.069998   7.170221
    24  H    4.821111   2.819509   2.179693   6.409530   6.548478
    25  H    4.930094   3.440211   2.110726   7.576607   7.869794
    26  C    4.408897   2.577520   3.167391   4.727120   4.534301
    27  H    5.117056   3.092072   3.508051   5.095308   4.901464
    28  H    4.567692   2.829075   2.978231   5.649510   5.486834
    29  H    4.962369   3.399790   4.164965   4.581945   4.152887
                   16         17         18         19         20
    16  H    0.000000
    17  H    1.737310   0.000000
    18  C    4.338455   4.644609   0.000000
    19  H    4.661010   5.063829   1.084523   0.000000
    20  H    4.737266   5.280554   1.087209   1.771574   0.000000
    21  H    5.057489   5.031404   1.089415   1.761787   1.747748
    22  C    7.416248   7.043020   6.581182   7.663122   6.330250
    23  H    7.775699   7.559423   7.236259   8.318238   6.876168
    24  H    7.260105   6.671549   6.852183   7.922887   6.757699
    25  H    8.295107   7.871726   6.987428   8.049410   6.723618
    26  C    5.576071   5.250697   6.653751   7.663043   6.566067
    27  H    6.053543   5.416798   7.080454   8.087100   7.116675
    28  H    6.419496   6.235458   7.119468   8.161492   6.886975
    29  H    5.402871   5.193219   7.161944   8.113556   7.086076
                   21         22         23         24         25
    21  H    0.000000
    22  C    6.246093   0.000000
    23  H    7.019432   1.091519   0.000000
    24  H    6.497310   1.086873   1.765148   0.000000
    25  H    6.517565   1.087504   1.760214   1.775761   0.000000
    26  C    6.696956   3.036504   2.982726   2.630357   4.105078
    27  H    6.991258   3.080844   3.220839   2.317593   4.037162
    28  H    7.136853   2.580350   2.178946   2.429455   3.624979
    29  H    7.335982   4.088867   3.897197   3.684857   5.160205
                   26         27         28         29
    26  C    0.000000
    27  H    1.090012   0.000000
    28  H    1.082639   1.759401   0.000000
    29  H    1.089019   1.754906   1.749269   0.000000
 Stoichiometry    C11H15NO2
 Framework group  C1[X(C11H15NO2)]
 Deg. of freedom    81
 Full point group                 C1      NOp   1
 RotChk:  IX=0 Diff= 5.31D-16
 Largest Abelian subgroup         C1      NOp   1
 Largest concise Abelian subgroup C1      NOp   1
                         Standard orientation:                         
 ---------------------------------------------------------------------
 Center     Atomic      Atomic             Coordinates (Angstroms)
 Number     Number       Type             X           Y           Z
 ---------------------------------------------------------------------
      1          8           0        2.287754   -2.278959   -0.210026
      2          8           0       -3.600861   -0.248228    0.404268
      3          7           0        0.023794    1.801838   -0.210493
      4          1           0        0.051432    2.809493   -0.208151
      5          6           0       -1.290927   -0.142404   -0.078058
      6          6           0        1.230594    1.148892   -0.126578
      7          6           0       -1.208013    1.220171   -0.070616
      8          6           0       -2.561540   -0.831978    0.114095
      9          6           0       -0.056610   -0.947711   -0.354061
     10          1           0       -0.047561   -1.854763    0.249971
     11          1           0       -0.069724   -1.322762   -1.387879
     12          6           0        1.231865   -0.214184   -0.118461
     13          6           0        2.398847   -1.080013    0.035004
     14          6           0       -2.329758    2.191062    0.073803
     15          1           0       -1.999193    3.204591   -0.147328
     16          1           0       -3.155991    1.938616   -0.581815
     17          1           0       -2.728162    2.173961    1.085465
     18          6           0       -2.584428   -2.328487   -0.045769
     19          1           0       -3.612025   -2.673182   -0.083447
     20          1           0       -2.061903   -2.656564   -0.940954
     21          1           0       -2.093725   -2.809103    0.799834
     22          6           0        3.732587   -0.574307    0.528797
     23          1           0        4.320515   -0.179130   -0.301618
     24          1           0        3.642690    0.203448    1.282660
     25          1           0        4.272857   -1.421844    0.944072
     26          6           0        2.394145    2.085789   -0.065193
     27          1           0        2.686044    2.290334    0.964896
     28          1           0        3.259126    1.701711   -0.590929
     29          1           0        2.133342    3.038850   -0.523035
 ---------------------------------------------------------------------
 Rotational constants (GHZ):           1.0791047           0.4906983           0.3460501
 Leave Link  202 at Fri Jan 23 20:44:55 2026, MaxMem=  2147483648 cpu:               0.0 elap:               0.0
 (Enter /data/home/wyx/g16/l301.exe)
 Standard basis: TZVP (5D, 7F)
 Ernie: Thresh=  0.10000D-02 Tol=  0.10000D-05 Strict=F.
 There are   370 symmetry adapted cartesian basis functions of A   symmetry.
 There are   356 symmetry adapted basis functions of A   symmetry.
   356 basis functions,   610 primitive gaussians,   370 cartesian basis functions
    52 alpha electrons       52 beta electrons
       nuclear repulsion energy       900.7808118532 Hartrees.
 IExCor=20419 DFT=T Ex+Corr=CAM-B3LYP ExCW=0 ScaHFX=  1.000000
 ScaDFX=  1.000000  1.000000  1.000000  0.810000 ScalE2=  1.000000  1.000000
 IRadAn=      5 IRanWt=     -1 IRanGd=            0 ICorTp=0 IEmpDi=141
 HFx  wShort=  0.000000 wLong=  0.330000 cFull=  0.190000 cShort=  0.000000 cLong=  0.460000
 DFx  wShort=  0.000000 wLong=  0.330000 cFull=  0.190000 cShort=  0.000000 cLong=  0.460000
 NAtoms=   29 NActive=   29 NUniq=   29 SFac= 1.00D+00 NAtFMM=   60 NAOKFM=F Big=F
 Integral buffers will be    131072 words long.
 Raffenetti 1 integral format.
 Two-electron integral symmetry is turned on.
 R6Disp:  Grimme-D3(BJ) Dispersion energy=       -0.0261955096 Hartrees.
 Nuclear repulsion after empirical dispersion term =      900.7546163436 Hartrees.
 ------------------------------------------------------------------------------
 Polarizable Continuum Model (PCM)
 =================================
 Model                : PCM.
 Atomic radii         : UFF (Universal Force Field).
 Polarization charges : Total charges.
 Charge compensation  : None.
 Solution method      : On-the-fly selection.
 Cavity type          : Scaled VdW (van der Waals Surface) (Alpha=1.100).
 Cavity algorithm     : GePol (No added spheres)
                        Default sphere list used, NSphG=   29.
                        Lebedev-Laikov grids with approx.  5.0 points / Ang**2.
                        Smoothing algorithm: York/Karplus (Gamma=1.0000).
                        Polarization charges: spherical gaussians, with
                                              point-specific exponents (IZeta= 3).
                        Self-potential: point-specific (ISelfS= 7).
                        Self-field    : sphere-specific E.n sum rule (ISelfD= 2).
 1st derivatives      : Analytical E(r).r(x)/FMM algorithm (CHGder, D1EAlg=3).
                        Cavity 1st derivative terms included.
 Solvent              : TetraHydroFuran, Eps=   7.425700 Eps(inf)=   1.974025
 ------------------------------------------------------------------------------
 GePol: Number of generator spheres                  =      29
 GePol: Total number of spheres                      =      29
 GePol: Number of exposed spheres                    =      29 (100.00%)
 GePol: Number of points                             =    2108
 GePol: Average weight of points                     =       0.13
 GePol: Minimum weight of points                     =   0.40D-09
 GePol: Maximum weight of points                     =    0.20577
 GePol: Number of points with low weight             =     149
 GePol: Fraction of low-weight points (<1% of avg)   =       7.07%
 GePol: Cavity surface area                          =    268.496 Ang**2
 GePol: Cavity volume                                =    286.515 Ang**3
 Leave Link  301 at Fri Jan 23 20:44:55 2026, MaxMem=  2147483648 cpu:               0.6 elap:               0.0
 (Enter /data/home/wyx/g16/l302.exe)
 NPDir=0 NMtPBC=     1 NCelOv=     1 NCel=       1 NClECP=     1 NCelD=      1
         NCelK=      1 NCelE2=     1 NClLst=     1 CellRange=     0.0.
 One-electron integrals computed using PRISM.
 One-electron integral symmetry used in STVInt
 NBasis=   356 RedAO= T EigKep=  4.70D-05  NBF=   356
 NBsUse=   356 1.00D-06 EigRej= -1.00D+00 NBFU=   356
 Precomputing XC quadrature grid using
 IXCGrd= 4 IRadAn=           5 IRanWt=          -1 IRanGd=           0 AccXCQ= 0.00D+00.
 Generated NRdTot=       0 NPtTot=           0 NUsed=           0 NTot=          32
 NSgBfM=   366   366   366   366   366 MxSgAt=    29 MxSgA2=    29.
 Leave Link  302 at Fri Jan 23 20:44:55 2026, MaxMem=  2147483648 cpu:               3.1 elap:               0.2
 (Enter /data/home/wyx/g16/l303.exe)
 DipDrv:  MaxL=1.
 Leave Link  303 at Fri Jan 23 20:44:55 2026, MaxMem=  2147483648 cpu:               0.6 elap:               0.0
 (Enter /data/home/wyx/g16/l308.exe)
 Leave Link  308 at Fri Jan 23 20:44:56 2026, MaxMem=  2147483648 cpu:               0.7 elap:               0.1
 (Enter /data/home/wyx/g16/l401.exe)
 Initial guess from the checkpoint file:  "DDL-S2-cLR-12.chk"
 B after Tr=     0.000000    0.000000   -0.000000
         Rot=    1.000000    0.000000   -0.000000   -0.000000 Ang=   0.00 deg.
 Guess basis will be translated and rotated to current coordinates.
 JPrj=2 DoOrth=T DoCkMO=T.
 Leave Link  401 at Fri Jan 23 20:44:56 2026, MaxMem=  2147483648 cpu:               2.3 elap:               0.2
 (Enter /data/home/wyx/g16/l502.exe)
 Integral symmetry usage will be decided dynamically.
 Closed shell SCF:
 Using DIIS extrapolation, IDIIS=  1040.
 NGot=  2147483648 LenX=  2147200095 LenY=  2147062754
 Requested convergence on RMS density matrix=1.00D-08 within 128 cycles.
 Requested convergence on MAX density matrix=1.00D-06.
 Requested convergence on             energy=1.00D-06.
 No special actions if energy rises.
 Fock matrices will be formed incrementally for  20 cycles.

 Cycle   1  Pass 1  IDiag  1:
 FoFJK:  IHMeth= 1 ICntrl=       0 DoSepK=T KAlg= 0 I1Cent=           0 FoldK=F
 IRaf=         1 NMat=       1 IRICut=       1 DoRegI=T DoRafI=F ISym2E= 0 IDoP0=0 IntGTp=1.
 FoFCou: FMM=F IPFlag=           0 FMFlag=      100000 FMFlg1=           0
         NFxFlg=           0 DoJE=T BraDBF=F KetDBF=F FulRan=T
         wScrn=  0.000000 ICntrl=       500 IOpCl=  0 I1Cent=           0 NGrid=           0
         NMat0=    1 NMatS0=      1 NMatT0=    0 NMatD0=    1 NMtDS0=    0 NMtDT0=    0
 Symmetry not used in FoFCou.
 Inv3:  Mode=1 IEnd=    13330992.
 Iteration    1 A*A^-1 deviation from unit magnitude is 3.00D-15 for    752.
 Iteration    1 A*A^-1 deviation from orthogonality  is 2.19D-15 for   1349    965.
 Iteration    1 A^-1*A deviation from unit magnitude is 3.55D-15 for    500.
 Iteration    1 A^-1*A deviation from orthogonality  is 1.94D-15 for   1431     57.
 E= -633.328041762608    
 DIIS: error= 1.56D-08 at cycle   1 NSaved=   1.
 NSaved= 1 IEnMin= 1 EnMin= -633.328041762608     IErMin= 1 ErrMin= 1.56D-08
 ErrMax= 1.56D-08  0.00D+00 EMaxC= 1.00D-01 BMatC= 6.46D-14 BMatP= 6.46D-14
 IDIUse=1 WtCom= 1.00D+00 WtEn= 0.00D+00
 Coeff-Com:  0.100D+01
 Coeff:      0.100D+01
 Gap=     0.234 Goal=   None    Shift=    0.000
 RMSDP=2.86D-09 MaxDP=8.51D-08              OVMax= 3.42D-07

 Error on total polarization charges =  0.01421
 SCF Done:  E(RCAM-B3LYP) =  -633.328041763     A.U. after    1 cycles
            NFock=  1  Conv=0.29D-08     -V/T= 2.0041
 KE= 6.307366581400D+02 PE=-3.277595259461D+03 EE= 1.112775943215D+03
 Leave Link  502 at Fri Jan 23 20:45:02 2026, MaxMem=  2147483648 cpu:              85.2 elap:               5.6
 (Enter /data/home/wyx/g16/l801.exe)
 DoSCS=F DFT=T ScalE2(SS,OS)=  1.000000  1.000000
 ExpMin= 9.52D-02 ExpMax= 2.70D+04 ExpMxC= 9.22D+02 IAcc=3 IRadAn=         5 AccDes= 0.00D+00
 HarFok:  IExCor=  205 AccDes= 0.00D+00 IRadAn=         5 IDoV=-2 UseB2=F ITyADJ=14
 ICtDFT= 12500011 ScaDFX=  1.000000  1.000000  1.000000  1.000000
 Largest valence mixing into a core orbital is  5.63D-05
 Largest core mixing into a valence orbital is  1.19D-05
 Range of M.O.s used for correlation:    15   356
 NBasis=   356 NAE=    52 NBE=    52 NFC=    14 NFV=     0
 NROrb=    342 NOA=    38 NOB=    38 NVA=   304 NVB=   304

 **** Warning!!: The largest alpha MO coefficient is  0.56199230D+02

 Leave Link  801 at Fri Jan 23 20:45:02 2026, MaxMem=  2147483648 cpu:               1.0 elap:               0.1
 (Enter /data/home/wyx/g16/l914.exe)
 RHF ground state
 Two-electron integrals replicated using symmetry.
 MDV=  2147483648 DFT=T DoStab=F Mixed=T DoRPA=T DoScal=F NonHer=T
 NEqPCM:  Using equilibrium solvation (IEInf=0, Eps=   7.4257, EpsInf=   1.9740)
 Making orbital integer symmetry assigments:
 Orbital symmetries:
       Occupied  (A) (A) (A) (A) (A) (A) (A) (A) (A) (A) (A) (A)
                 (A) (A) (A) (A) (A) (A) (A) (A) (A) (A) (A) (A)
                 (A) (A) (A) (A) (A) (A) (A) (A) (A) (A) (A) (A)
                 (A) (A) (A) (A) (A) (A) (A) (A) (A) (A) (A) (A)
                 (A) (A) (A) (A)
       Virtual   (A) (A) (A) (A) (A) (A) (A) (A) (A) (A) (A) (A)
                 (A) (A) (A) (A) (A) (A) (A) (A) (A) (A) (A) (A)
                 (A) (A) (A) (A) (A) (A) (A) (A) (A) (A) (A) (A)
                 (A) (A) (A) (A) (A) (A) (A) (A) (A) (A) (A) (A)
                 (A) (A) (A) (A) (A) (A) (A) (A) (A) (A) (A) (A)
                 (A) (A) (A) (A) (A) (A) (A) (A) (A) (A) (A) (A)
                 (A) (A) (A) (A) (A) (A) (A) (A) (A) (A) (A) (A)
                 (A) (A) (A) (A) (A) (A) (A) (A) (A) (A) (A) (A)
                 (A) (A) (A) (A) (A) (A) (A) (A) (A) (A) (A) (A)
                 (A) (A) (A) (A) (A) (A) (A) (A) (A) (A) (A) (A)
                 (A) (A) (A) (A) (A) (A) (A) (A) (A) (A) (A) (A)
                 (A) (A) (A) (A) (A) (A) (A) (A) (A) (A) (A) (A)
                 (A) (A) (A) (A) (A) (A) (A) (A) (A) (A) (A) (A)
                 (A) (A) (A) (A) (A) (A) (A) (A) (A) (A) (A) (A)
                 (A) (A) (A) (A) (A) (A) (A) (A) (A) (A) (A) (A)
                 (A) (A) (A) (A) (A) (A) (A) (A) (A) (A) (A) (A)
                 (A) (A) (A) (A) (A) (A) (A) (A) (A) (A) (A) (A)
                 (A) (A) (A) (A) (A) (A) (A) (A) (A) (A) (A) (A)
                 (A) (A) (A) (A) (A) (A) (A) (A) (A) (A) (A) (A)
                 (A) (A) (A) (A) (A) (A) (A) (A) (A) (A) (A) (A)
                 (A) (A) (A) (A) (A) (A) (A) (A) (A) (A) (A) (A)
                 (A) (A) (A) (A) (A) (A) (A) (A) (A) (A) (A) (A)
                 (A) (A) (A) (A) (A) (A) (A) (A) (A) (A) (A) (A)
                 (A) (A) (A) (A) (A) (A) (A) (A) (A) (A) (A) (A)
                 (A) (A) (A) (A) (A) (A) (A) (A) (A) (A) (A) (A)
                 (A) (A) (A) (A)
 PCM Corrected Linear-Response:
 Compute the excitation energies in the ground state reaction field.
    24 initial guesses have been made.
 Convergence on wavefunction:    0.000001000000000
 Davidson Disk Diagonalization:  ConvIn= 1.00D-06 SkipCon=T Conv= 1.00D-06.
 Max sub-space:  2000 roots to seek:    24 dimension of matrix:        23104
 Iteration     1 Dimension    24 NMult     0 NNew     24
 CISAX will form    24 AO SS matrices at one time.
 NMat=    24 NSing=    24 JSym2X= 0.
 FoFJK:  IHMeth= 1 ICntrl=       0 DoSepK=T KAlg= 0 I1Cent=           0 FoldK=F
 IRaf=         1 NMat=      48 IRICut=       1 DoRegI=T DoRafI=F ISym2E= 0 IDoP0=3 IntGTp=3.
 FoFCou: FMM=F IPFlag=           0 FMFlag=      100000 FMFlg1=           0
         NFxFlg=           0 DoJE=F BraDBF=F KetDBF=F FulRan=T
         wScrn=  0.000000 ICntrl=       500 IOpCl=  0 I1Cent=           0 NGrid=           0
         NMat0=   24 NMatS0=     24 NMatT0=    0 NMatD0=   24 NMtDS0=    0 NMtDT0=    0
 Symmetry not used in FoFCou.
 New state      2 was old state      3
 New state      3 was old state      4
 New state      4 was old state      2
 New state      5 was old state      6
 New state      6 was old state      5
 Excitation Energies [eV] at current iteration:
 Root      1 :     3.930658122360367
 Root      2 :     4.305499235664691
 Root      3 :     4.495042693177327
 Root      4 :     5.519516295123728
 Root      5 :     6.152395559843782
 Root      6 :     6.531399239461792
 Root      7 :     6.708542478908222
 Root      8 :     6.788095917293589
 Root      9 :     7.016265260207049
 Root     10 :     7.020787578394800
 Root     11 :     7.283105612022179
 Root     12 :     7.407406255931208
 Root     13 :     7.545000326535821
 Root     14 :     7.622889850481615
 Root     15 :     7.773216847315742
 Root     16 :     8.006243943196562
 Root     17 :     8.119696640334661
 Root     18 :     8.221619425902110
 Root     19 :     8.267512967114950
 Root     20 :     8.549394150741852
 Root     21 :     8.687221590887196
 Root     22 :     8.957754204881523
 Root     23 :     9.090589297022742
 Root     24 :     9.142749767613733
 Iteration     2 Dimension    36 NMult    24 NNew     12
 CISAX will form    12 AO SS matrices at one time.
 NMat=    12 NSing=    12 JSym2X= 0.
 Root      1 not converged, maximum delta is    0.043714876641323
 Root      2 not converged, maximum delta is    0.074059581749973
 Root      3 not converged, maximum delta is    0.091700718304995
 Root      4 not converged, maximum delta is    0.210161825377397
 New state      5 was old state      6
 Root      5 not converged, maximum delta is    0.236218282822153
 New state      6 was old state      5
 Root      6 not converged, maximum delta is    0.134302256112550
 Excitation Energies [eV] at current iteration:
 Root      1 :     3.470455034116658   Change is   -0.460203088243708
 Root      2 :     4.070427675678116   Change is   -0.235071559986575
 Root      3 :     4.221931926283024   Change is   -0.273110766894302
 Root      4 :     5.200697765386828   Change is   -0.318818529736899
 Root      5 :     5.697030271631229   Change is   -0.834368967830563
 Root      6 :     6.022385356237046   Change is   -0.130010203606737
 Iteration     3 Dimension    48 NMult    36 NNew     12
 CISAX will form    12 AO SS matrices at one time.
 NMat=    12 NSing=    12 JSym2X= 0.
 Root      1 not converged, maximum delta is    0.009914289398578
 Root      2 not converged, maximum delta is    0.014175200186860
 Root      3 not converged, maximum delta is    0.013831589802285
 Root      4 not converged, maximum delta is    0.025344744781768
 Root      5 not converged, maximum delta is    0.026316477748653
 Root      6 not converged, maximum delta is    0.019703182591322
 Excitation Energies [eV] at current iteration:
 Root      1 :     3.450494762320509   Change is   -0.019960271796149
 Root      2 :     4.056714173977514   Change is   -0.013713501700602
 Root      3 :     4.207440173631834   Change is   -0.014491752651190
 Root      4 :     5.178924125730659   Change is   -0.021773639656169
 Root      5 :     5.652697217999911   Change is   -0.044333053631318
 Root      6 :     6.011642885442934   Change is   -0.010742470794112
 Iteration     4 Dimension    60 NMult    48 NNew     12
 CISAX will form    12 AO SS matrices at one time.
 NMat=    12 NSing=    12 JSym2X= 0.
 Root      1 not converged, maximum delta is    0.002474591958577
 Root      2 not converged, maximum delta is    0.001876305095006
 Root      3 not converged, maximum delta is    0.002185103804823
 Root      4 not converged, maximum delta is    0.002479357208475
 Root      5 not converged, maximum delta is    0.004353595279283
 Root      6 not converged, maximum delta is    0.004131232477205
 Excitation Energies [eV] at current iteration:
 Root      1 :     3.448825271877899   Change is   -0.001669490442610
 Root      2 :     4.055972593340902   Change is   -0.000741580636611
 Root      3 :     4.206570181768202   Change is   -0.000869991863633
 Root      4 :     5.176969003684564   Change is   -0.001955122046095
 Root      5 :     5.648403211716610   Change is   -0.004294006283302
 Root      6 :     6.010835252438367   Change is   -0.000807633004567
 Iteration     5 Dimension    72 NMult    60 NNew     12
 CISAX will form    12 AO SS matrices at one time.
 NMat=    12 NSing=    12 JSym2X= 0.
 Root      1 not converged, maximum delta is    0.000719953740293
 Root      2 not converged, maximum delta is    0.000316744201898
 Root      3 not converged, maximum delta is    0.000561745163235
 Root      4 not converged, maximum delta is    0.000841265181211
 Root      5 not converged, maximum delta is    0.000998754931391
 Root      6 not converged, maximum delta is    0.001106402529915
 Excitation Energies [eV] at current iteration:
 Root      1 :     3.448722815138575   Change is   -0.000102456739323
 Root      2 :     4.055921047519693   Change is   -0.000051545821209
 Root      3 :     4.206517278110940   Change is   -0.000052903657261
 Root      4 :     5.176828671339059   Change is   -0.000140332345506
 Root      5 :     5.648049718009626   Change is   -0.000353493706983
 Root      6 :     6.010770876767132   Change is   -0.000064375671235
 Iteration     6 Dimension    84 NMult    72 NNew     12
 CISAX will form    12 AO SS matrices at one time.
 NMat=    12 NSing=    12 JSym2X= 0.
 Root      1 not converged, maximum delta is    0.000196708041675
 Root      2 not converged, maximum delta is    0.000096418803359
 Root      3 not converged, maximum delta is    0.000157854028871
 Root      4 not converged, maximum delta is    0.000465935839278
 Root      5 not converged, maximum delta is    0.000262506608550
 Root      6 not converged, maximum delta is    0.000183628622899
 Excitation Energies [eV] at current iteration:
 Root      1 :     3.448716847868740   Change is   -0.000005967269836
 Root      2 :     4.055917658421848   Change is   -0.000003389097846
 Root      3 :     4.206514112629105   Change is   -0.000003165481835
 Root      4 :     5.176816228128182   Change is   -0.000012443210878
 Root      5 :     5.648022597441314   Change is   -0.000027120568312
 Root      6 :     6.010765773492863   Change is   -0.000005103274269
 Iteration     7 Dimension    96 NMult    84 NNew     12
 CISAX will form    12 AO SS matrices at one time.
 NMat=    12 NSing=    12 JSym2X= 0.
 Root      1 not converged, maximum delta is    0.000018709734115
 Root      2 not converged, maximum delta is    0.000019829331748
 Root      3 not converged, maximum delta is    0.000034778576996
 Root      4 not converged, maximum delta is    0.000138192200175
 Root      5 not converged, maximum delta is    0.000109651070971
 Root      6 not converged, maximum delta is    0.000071737490376
 Excitation Energies [eV] at current iteration:
 Root      1 :     3.448716519974135   Change is   -0.000000327894605
 Root      2 :     4.055917479425390   Change is   -0.000000178996458
 Root      3 :     4.206513951354386   Change is   -0.000000161274720
 Root      4 :     5.176815010505567   Change is   -0.000001217622615
 Root      5 :     5.648020299822821   Change is   -0.000002297618494
 Root      6 :     6.010765331786291   Change is   -0.000000441706572
 Iteration     8 Dimension   108 NMult    96 NNew     12
 CISAX will form    12 AO SS matrices at one time.
 NMat=    12 NSing=    12 JSym2X= 0.
 Root      1 not converged, maximum delta is    0.000004036568350
 Root      2 not converged, maximum delta is    0.000003720688486
 Root      3 not converged, maximum delta is    0.000003937236453
 Root      4 not converged, maximum delta is    0.000022912258947
 Root      5 not converged, maximum delta is    0.000023314154358
 Root      6 not converged, maximum delta is    0.000015477740743
 Excitation Energies [eV] at current iteration:
 Root      1 :     3.448716508102646   Change is   -0.000000011871489
 Root      2 :     4.055917468810473   Change is   -0.000000010614917
 Root      3 :     4.206513942866491   Change is   -0.000000008487895
 Root      4 :     5.176814915147633   Change is   -0.000000095357934
 Root      5 :     5.648020140152352   Change is   -0.000000159670469
 Root      6 :     6.010765293023092   Change is   -0.000000038763199
 Iteration     9 Dimension   120 NMult   108 NNew     12
 CISAX will form    12 AO SS matrices at one time.
 NMat=    12 NSing=    12 JSym2X= 0.
 Root      1 has converged.
 Root      2 has converged.
 Root      3 has converged.
 Root      4 not converged, maximum delta is    0.000004120944211
 Root      5 not converged, maximum delta is    0.000005778891554
 Root      6 not converged, maximum delta is    0.000004456347292
 Excitation Energies [eV] at current iteration:
 Root      1 :     3.448716507636034   Change is   -0.000000000466612
 Root      2 :     4.055917468430174   Change is   -0.000000000380299
 Root      3 :     4.206513942578330   Change is   -0.000000000288160
 Root      4 :     5.176814910851934   Change is   -0.000000004295699
 Root      5 :     5.648020130874448   Change is   -0.000000009277903
 Root      6 :     6.010765290581799   Change is   -0.000000002441293
 Iteration    10 Dimension   126 NMult   120 NNew      6
 CISAX will form     6 AO SS matrices at one time.
 NMat=     6 NSing=     6 JSym2X= 0.
 Root      1 has converged.
 Root      2 has converged.
 Root      3 has converged.
 Root      4 has converged.
 Root      5 not converged, maximum delta is    0.000001688710523
 Root      6 not converged, maximum delta is    0.000001211628876
 Excitation Energies [eV] at current iteration:
 Root      1 :     3.448716507633746   Change is   -0.000000000002288
 Root      2 :     4.055917468427235   Change is   -0.000000000002939
 Root      3 :     4.206513942575829   Change is   -0.000000000002501
 Root      4 :     5.176814910638459   Change is   -0.000000000213474
 Root      5 :     5.648020130268912   Change is   -0.000000000605536
 Root      6 :     6.010765290421070   Change is   -0.000000000160729
 Iteration    11 Dimension   130 NMult   126 NNew      4
 CISAX will form     4 AO SS matrices at one time.
 NMat=     4 NSing=     4 JSym2X= 0.
 Root      1 has converged.
 Root      2 has converged.
 Root      3 has converged.
 Root      4 has converged.
 Root      5 has converged.
 Root      6 has converged.
 Excitation Energies [eV] at current iteration:
 Root      1 :     3.448716507633603   Change is   -0.000000000000144
 Root      2 :     4.055917468427032   Change is   -0.000000000000202
 Root      3 :     4.206513942575633   Change is   -0.000000000000196
 Root      4 :     5.176814910632664   Change is   -0.000000000005796
 Root      5 :     5.648020130228987   Change is   -0.000000000039925
 Root      6 :     6.010765290408378   Change is   -0.000000000012692
 Convergence achieved on expansion vectors.
 PCM Corrected Linear-Response:
 The state of interest is root number   2
 Excitation energy =    4.0559 eV, Total energy =  -633.178989538    
 Recompute the excitation energies using the linear response reaction field.
 Convergence on wavefunction:    0.000001000000000
 Davidson Disk Diagonalization:  ConvIn= 1.00D-06 SkipCon=T Conv= 1.00D-06.
 Max sub-space:  2000 roots to seek:     6 dimension of matrix:        23104
 Iteration     1 Dimension     6 NMult     0 NNew      6
 CISAX will form     6 AO SS matrices at one time.
 NMat=     6 NSing=     6 JSym2X= 0.
 Excitation Energies [eV] at current iteration:
 Root      1 :     3.546668759604602
 Root      2 :     4.083639513643679
 Root      3 :     4.233909984394184
 Root      4 :     5.252926717089283
 Root      5 :     5.815894549686192
 Root      6 :     5.989312637874987
 Iteration     2 Dimension    18 NMult     6 NNew     12
 CISAX will form    12 AO SS matrices at one time.
 NMat=    12 NSing=    12 JSym2X= 0.
 Root      1 not converged, maximum delta is    0.016699724653564
 Root      2 not converged, maximum delta is    0.019964365075140
 Root      3 not converged, maximum delta is    0.007671488065491
 Root      4 not converged, maximum delta is    0.213034613978112
 Root      5 not converged, maximum delta is    0.250394574084372
 Root      6 not converged, maximum delta is    0.097535504474623
 Excitation Energies [eV] at current iteration:
 Root      1 :     3.335063680722811   Change is   -0.211605078881791
 Root      2 :     4.051149752153782   Change is   -0.032489761489897
 Root      3 :     4.201274865035975   Change is   -0.032635119358208
 Root      4 :     5.052477166330910   Change is   -0.200449550758372
 Root      5 :     5.524181626238424   Change is   -0.291712923447767
 Root      6 :     5.968147218792681   Change is   -0.021165419082305
 Iteration     3 Dimension    30 NMult    18 NNew     12
 CISAX will form    12 AO SS matrices at one time.
 NMat=    12 NSing=    12 JSym2X= 0.
 Root      1 not converged, maximum delta is    0.002685594898795
 Root      2 not converged, maximum delta is    0.000857235945123
 Root      3 not converged, maximum delta is    0.000948200965854
 Root      4 not converged, maximum delta is    0.012072453754405
 Root      5 not converged, maximum delta is    0.010568244875229
 Root      6 not converged, maximum delta is    0.009555046564845
 Excitation Energies [eV] at current iteration:
 Root      1 :     3.332228120293160   Change is   -0.002835560429651
 Root      2 :     4.050864275439235   Change is   -0.000285476714548
 Root      3 :     4.200969315083197   Change is   -0.000305549952779
 Root      4 :     5.044416752448895   Change is   -0.008060413882015
 Root      5 :     5.516102942340552   Change is   -0.008078683897872
 Root      6 :     5.966747537860504   Change is   -0.001399680932177
 Iteration     4 Dimension    42 NMult    30 NNew     12
 CISAX will form    12 AO SS matrices at one time.
 NMat=    12 NSing=    12 JSym2X= 0.
 Root      1 not converged, maximum delta is    0.001502101270139
 Root      2 not converged, maximum delta is    0.000157701291480
 Root      3 not converged, maximum delta is    0.000156775191132
 Root      4 not converged, maximum delta is    0.001906528184590
 Root      5 not converged, maximum delta is    0.002686206014012
 Root      6 not converged, maximum delta is    0.010904160443971
 Excitation Energies [eV] at current iteration:
 Root      1 :     3.331846857006251   Change is   -0.000381263286909
 Root      2 :     4.050849577496777   Change is   -0.000014697942458
 Root      3 :     4.200952432089420   Change is   -0.000016882993776
 Root      4 :     5.043290341034059   Change is   -0.001126411414835
 Root      5 :     5.515074327667994   Change is   -0.001028614672558
 Root      6 :     5.966233006084842   Change is   -0.000514531775662
 Iteration     5 Dimension    54 NMult    42 NNew     12
 CISAX will form    12 AO SS matrices at one time.
 NMat=    12 NSing=    12 JSym2X= 0.
 Root      1 not converged, maximum delta is    0.000590776115560
 Root      2 not converged, maximum delta is    0.000072840137290
 Root      3 not converged, maximum delta is    0.000080612061908
 Root      4 not converged, maximum delta is    0.000722702334832
 Root      5 not converged, maximum delta is    0.000683205749456
 Root      6 not converged, maximum delta is    0.004613816748620
 Excitation Energies [eV] at current iteration:
 Root      1 :     3.331819695616680   Change is   -0.000027161389571
 Root      2 :     4.050848613954300   Change is   -0.000000963542477
 Root      3 :     4.200951108012866   Change is   -0.000001324076554
 Root      4 :     5.043188365372231   Change is   -0.000101975661829
 Root      5 :     5.514961551713389   Change is   -0.000112775954605
 Root      6 :     5.966118985787584   Change is   -0.000114020297259
 Iteration     6 Dimension    66 NMult    54 NNew     12
 CISAX will form    12 AO SS matrices at one time.
 NMat=    12 NSing=    12 JSym2X= 0.
 Root      1 not converged, maximum delta is    0.000075009614236
 Root      2 not converged, maximum delta is    0.000024956385961
 Root      3 not converged, maximum delta is    0.000025180545049
 Root      4 not converged, maximum delta is    0.000275338998353
 Root      5 not converged, maximum delta is    0.000385738235318
 Root      6 not converged, maximum delta is    0.000877213718947
 Excitation Energies [eV] at current iteration:
 Root      1 :     3.331817852715540   Change is   -0.000001842901140
 Root      2 :     4.050848509328286   Change is   -0.000000104626014
 Root      3 :     4.200950991101047   Change is   -0.000000116911819
 Root      4 :     5.043178491499334   Change is   -0.000009873872897
 Root      5 :     5.514947675178384   Change is   -0.000013876535006
 Root      6 :     5.966105132618389   Change is   -0.000013853169194
 Iteration     7 Dimension    78 NMult    66 NNew     12
 CISAX will form    12 AO SS matrices at one time.
 NMat=    12 NSing=    12 JSym2X= 0.
 Root      1 not converged, maximum delta is    0.000009211738502
 Root      2 not converged, maximum delta is    0.000004518284171
 Root      3 not converged, maximum delta is    0.000006637859708
 Root      4 not converged, maximum delta is    0.000098212769995
 Root      5 not converged, maximum delta is    0.000144185273724
 Root      6 not converged, maximum delta is    0.000109059658509
 Excitation Energies [eV] at current iteration:
 Root      1 :     3.331817784579227   Change is   -0.000000068136313
 Root      2 :     4.050848504685630   Change is   -0.000000004642656
 Root      3 :     4.200950984184361   Change is   -0.000000006916686
 Root      4 :     5.043177470226563   Change is   -0.000001021272771
 Root      5 :     5.514946096966684   Change is   -0.000001578211700
 Root      6 :     5.966103705205281   Change is   -0.000001427413107
 Iteration     8 Dimension    90 NMult    78 NNew     12
 CISAX will form    12 AO SS matrices at one time.
 NMat=    12 NSing=    12 JSym2X= 0.
 Root      1 not converged, maximum delta is    0.000002336362076
 Root      2 not converged, maximum delta is    0.000001406602013
 Root      3 not converged, maximum delta is    0.000001073540955
 Root      4 not converged, maximum delta is    0.000025247334747
 Root      5 not converged, maximum delta is    0.000043188141808
 Root      6 not converged, maximum delta is    0.000037976375217
 Excitation Energies [eV] at current iteration:
 Root      1 :     3.331817781669065   Change is   -0.000000002910162
 Root      2 :     4.050848504466416   Change is   -0.000000000219214
 Root      3 :     4.200950983772986   Change is   -0.000000000411375
 Root      4 :     5.043177396250878   Change is   -0.000000073975684
 Root      5 :     5.514945941400562   Change is   -0.000000155566122
 Root      6 :     5.966103554432991   Change is   -0.000000150772290
 Iteration     9 Dimension   102 NMult    90 NNew     12
 CISAX will form    12 AO SS matrices at one time.
 NMat=    12 NSing=    12 JSym2X= 0.
 Root      1 has converged.
 Root      2 has converged.
 Root      3 has converged.
 Root      4 not converged, maximum delta is    0.000005614942266
 Root      5 not converged, maximum delta is    0.000011752756678
 Root      6 not converged, maximum delta is    0.000019968148586
 Excitation Energies [eV] at current iteration:
 Root      1 :     3.331817781564375   Change is   -0.000000000104690
 Root      2 :     4.050848504455964   Change is   -0.000000000010451
 Root      3 :     4.200950983750229   Change is   -0.000000000022758
 Root      4 :     5.043177391317704   Change is   -0.000000004933174
 Root      5 :     5.514945928620469   Change is   -0.000000012780092
 Root      6 :     5.966103537308427   Change is   -0.000000017124565
 Iteration    10 Dimension   108 NMult   102 NNew      6
 CISAX will form     6 AO SS matrices at one time.
 NMat=     6 NSing=     6 JSym2X= 0.
 Root      1 has converged.
 Root      2 has converged.
 Root      3 has converged.
 Root      4 not converged, maximum delta is    0.000001420323751
 Root      5 not converged, maximum delta is    0.000003133146644
 Root      6 not converged, maximum delta is    0.000007022953730
 Excitation Energies [eV] at current iteration:
 Root      1 :     3.331817781563610   Change is   -0.000000000000765
 Root      2 :     4.050848504455762   Change is   -0.000000000000203
 Root      3 :     4.200950983749896   Change is   -0.000000000000333
 Root      4 :     5.043177391049019   Change is   -0.000000000268685
 Root      5 :     5.514945927733574   Change is   -0.000000000886896
 Root      6 :     5.966103535528057   Change is   -0.000000001780370
 Iteration    11 Dimension   114 NMult   108 NNew      6
 CISAX will form     6 AO SS matrices at one time.
 NMat=     6 NSing=     6 JSym2X= 0.
 Root      1 has converged.
 Root      2 has converged.
 Root      3 has converged.
 Root      4 has converged.
 Root      5 has converged.
 Root      6 not converged, maximum delta is    0.000001698279543
 Excitation Energies [eV] at current iteration:
 Root      1 :     3.331817781563388   Change is   -0.000000000000222
 Root      2 :     4.050848504455681   Change is   -0.000000000000081
 Root      3 :     4.200950983749759   Change is   -0.000000000000137
 Root      4 :     5.043177391032474   Change is   -0.000000000016546
 Root      5 :     5.514945927669774   Change is   -0.000000000063800
 Root      6 :     5.966103535361564   Change is   -0.000000000166493
 Iteration    12 Dimension   116 NMult   114 NNew      2
 CISAX will form     2 AO SS matrices at one time.
 NMat=     2 NSing=     2 JSym2X= 0.
 Root      1 has converged.
 Root      2 has converged.
 Root      3 has converged.
 Root      4 has converged.
 Root      5 has converged.
 Root      6 has converged.
 Excitation Energies [eV] at current iteration:
 Root      1 :     3.331817781563363   Change is   -0.000000000000025
 Root      2 :     4.050848504455741   Change is    0.000000000000060
 Root      3 :     4.200950983749680   Change is   -0.000000000000079
 Root      4 :     5.043177391032490   Change is    0.000000000000017
 Root      5 :     5.514945927669595   Change is   -0.000000000000178
 Root      6 :     5.966103535346187   Change is   -0.000000000015377
 Convergence achieved on expansion vectors.
 ***********************************************************************
 Excited states from <AA,BB:AA,BB> singles matrix:
 ***********************************************************************
 
 1PDM for each excited state written to RWF  633
 Ground to excited state transition densities written to RWF  633
 Ground to excited state transition electric dipole moments (Au):
       state          X           Y           Z        Dip. S.      Osc.
         1        -1.6162      0.1945      0.0505      2.6525      0.2165
         2        -0.1231     -0.0168      0.0433      0.0173      0.0017
         3        -0.0197      0.1417     -0.0337      0.0216      0.0022
         4        -0.1967     -1.7558      0.1179      3.1355      0.3874
         5        -0.0595     -1.4889      0.0217      2.2208      0.3001
         6         0.0283      0.2373      0.0650      0.0613      0.0090
 Ground to excited state transition velocity dipole moments (Au):
       state          X           Y           Z        Dip. S.      Osc.
         1         0.1899     -0.0191     -0.0069      0.0365      0.1985
         2         0.0176      0.0028     -0.0036      0.0003      0.0015
         3         0.0030     -0.0203      0.0017      0.0004      0.0018
         4         0.0391      0.3118     -0.0174      0.0991      0.3564
         5         0.0125      0.2962     -0.0053      0.0879      0.2892
         6        -0.0069     -0.0487     -0.0337      0.0036      0.0108
 Ground to excited state transition magnetic dipole moments (Au):
       state          X           Y           Z
         1        -0.0690      0.0228     -1.4487
         2         0.8052     -0.1309     -0.3002
         3         0.1712     -0.9956     -0.1938
         4         0.0574     -0.1015      0.0796
         5         0.1849     -0.1060      0.2887
         6        -0.0198     -0.0116      0.0178
 Ground to excited state transition velocity quadrupole moments (Au):
       state          XX          YY          ZZ          XY          XZ          YZ
         1        -0.1722      0.0991      0.0025     -0.5350      0.0548      0.0140
         2         0.0067     -0.0067     -0.0008     -0.0487      0.0157      0.0849
         3         0.0050     -0.0063      0.0267     -0.0553      0.0651      0.0092
         4        -1.2953      0.3027     -0.0019      0.0839      0.0877     -0.0513
         5        -0.5085      0.2703      0.0491      0.2285      0.0690      0.0318
         6        -0.2210     -0.2017      0.1763      0.0152      0.0336      0.0549
 <0|del|b> * <b|rxdel|0> + <0|del|b> * <b|delr+rdel|0>
 Rotatory Strengths (R) in cgs (10**-40 erg-esu-cm/Gauss)
       state          XX          YY          ZZ    R(velocity)    E-M Angle
         1        41.3322    -11.9380    -49.8205     -6.8087       90.73
         2         1.9897     39.2729     29.2756     23.5127       19.71
         3        48.2388      0.7012     44.2914     31.0772       15.70
         4      -117.9679      0.6019     -0.1131    -39.1597      133.85
         5       -95.2396      4.1469    -15.7965    -35.6297      106.74
         6         1.7545     -0.5367     -0.8912      0.1089       86.65
 1/2[<0|r|b>*<b|rxdel|0> + (<0|rxdel|b>*<b|r|0>)*]
 Rotatory Strengths (R) in cgs (10**-40 erg-esu-cm/Gauss)
       state          XX          YY          ZZ     R(length)
         1       -78.8833     -3.1423     51.7413    -10.0947
         2        70.0981     -1.5573      9.1967     25.9125
         3         2.3909     99.7524     -4.6159     32.5091
         4         7.9870   -126.0293     -6.6325    -41.5583
         5         7.7743   -111.5948     -4.4266    -36.0823
         6         0.3959      1.9484     -0.8192      0.5084
  1/2[<0|del|b>*<b|r|0> + (<0|r|b>*<b|del|0>)*] (Au)
       state          X           Y           Z        Dip. S.   Osc.(frdel)
         1        -0.3069     -0.0037     -0.0003      0.3109      0.2073
         2        -0.0022     -0.0000     -0.0002      0.0024      0.0016
         3        -0.0001     -0.0029     -0.0001      0.0030      0.0020
         4        -0.0077     -0.5475     -0.0021      0.5573      0.3715
         5        -0.0007     -0.4410     -0.0001      0.4419      0.2946
         6        -0.0002     -0.0116     -0.0022      0.0139      0.0093

 Excitation energies and oscillator strengths:
 
 Excited State   1:      Singlet-A      3.3318 eV  372.12 nm  f=0.2165  <S**2>=0.000
      52 -> 53         0.69950
 
 Excited State   2:      Singlet-A      4.0508 eV  306.07 nm  f=0.0017  <S**2>=0.000
      50 -> 54         0.18887
      51 -> 53         0.56829
      51 -> 54         0.32743
 This state for optimization and/or second-order correction.
 Total Energy, E(TD-HF/TD-DFT) =  -633.179175819    
 Copying the excited state density for this state as the 1-particle RhoCI density.
 
 Excited State   3:      Singlet-A      4.2010 eV  295.13 nm  f=0.0022  <S**2>=0.000
      49 -> 53         0.21035
      49 -> 54        -0.14105
      50 -> 53         0.53950
      50 -> 54        -0.25990
      50 -> 58         0.11339
      51 -> 54         0.20772
 
 Excited State   4:      Singlet-A      5.0432 eV  245.85 nm  f=0.3874  <S**2>=0.000
      52 -> 54         0.69355
 
 Excited State   5:      Singlet-A      5.5149 eV  224.81 nm  f=0.3001  <S**2>=0.000
      49 -> 53         0.62869
      50 -> 53        -0.24716
      51 -> 53         0.12798
 
 Excited State   6:      Singlet-A      5.9661 eV  207.81 nm  f=0.0090  <S**2>=0.000
      52 -> 55         0.65739
      52 -> 56         0.15266
 SavETr:  write IOETrn=   770 NScale= 10 NData=  16 NLR=1 NState=    6 LETran=     118.
 The selected state is a singlet.
 CISGrd: IGrad=1 NXY=2 DFT=T
 CISAX will form     1 AO SS matrices at one time.
 NMat=     1 NSing=     1 JSym2X= 0.
 Leave Link  914 at Fri Jan 23 20:53:07 2026, MaxMem=  2147483648 cpu:            7728.4 elap:             484.7
 (Enter /data/home/wyx/g16/l1002.exe)
 Minotr:  Closed shell wavefunction.
          Computing CIS/TDA/TD derivatives.
          Using Z-Vector for PSCF gradient.
          Skipping F1 and S1 gradient terms here.
 NEqPCM:  Using equilibrium solvation (IEInf=0, Eps=   7.4257, EpsInf=   1.9740)
          Frozen-core window.
          Direct CPHF calculation.
          Differentiating once with respect to electric field.
                with respect to dipole field.
          Electric field/nuclear overlap derivatives assumed to be zero.
          Requested convergence is 1.0D-10 RMS, and 1.0D-09 maximum.
          NewPWx=F KeepS1=T KeepF1=T KeepIn=T MapXYZ=F SortEE=F KeepMc=T.
 Two-electron integral symmetry used by symmetrizing perturbed Fock matrices.
          MDV=    2147483648 using IRadAn=       5.
          Solving linear equations separately, MaxMat=     384.
          There are     1 degrees of freedom in the 1st order CPHF.  IDoFFX=0 NUNeed=     1.
 FoFJK:  IHMeth= 1 ICntrl=       0 DoSepK=T KAlg= 0 I1Cent=           0 FoldK=F
 IRaf=         1 NMat=       1 IRICut=       1 DoRegI=T DoRafI=F ISym2E=-1 IDoP0=0 IntGTp=1.
 FoFCou: FMM=F IPFlag=           0 FMFlag=      100000 FMFlg1=           0
         NFxFlg=           0 DoJE=T BraDBF=F KetDBF=F FulRan=T
         wScrn=  0.000000 ICntrl=       500 IOpCl=  0 I1Cent=           0 NGrid=           0
         NMat0=    1 NMatS0=      1 NMatT0=    0 NMatD0=    1 NMtDS0=    0 NMtDT0=    0
 Petite list used in FoFCou.
 LinEq1:  Iter=  0 NonCon=     1 RMS=7.80D-03 Max=3.26D-01 NDo=     1
 AX will form     1 AO Fock derivatives at one time.
 LinEq1:  Iter=  1 NonCon=     1 RMS=2.12D-03 Max=9.02D-02 NDo=     1
 LinEq1:  Iter=  2 NonCon=     1 RMS=1.47D-03 Max=8.23D-02 NDo=     1
 LinEq1:  Iter=  3 NonCon=     1 RMS=6.08D-04 Max=3.31D-02 NDo=     1
 LinEq1:  Iter=  4 NonCon=     1 RMS=3.15D-04 Max=1.21D-02 NDo=     1
 LinEq1:  Iter=  5 NonCon=     1 RMS=1.63D-04 Max=8.26D-03 NDo=     1
 LinEq1:  Iter=  6 NonCon=     1 RMS=8.15D-05 Max=2.62D-03 NDo=     1
 LinEq1:  Iter=  7 NonCon=     1 RMS=4.66D-05 Max=2.12D-03 NDo=     1
 LinEq1:  Iter=  8 NonCon=     1 RMS=2.09D-05 Max=7.35D-04 NDo=     1
 LinEq1:  Iter=  9 NonCon=     1 RMS=1.56D-05 Max=7.52D-04 NDo=     1
 LinEq1:  Iter= 10 NonCon=     1 RMS=6.20D-06 Max=1.48D-04 NDo=     1
 LinEq1:  Iter= 11 NonCon=     1 RMS=3.55D-06 Max=1.27D-04 NDo=     1
 LinEq1:  Iter= 12 NonCon=     1 RMS=1.11D-06 Max=3.04D-05 NDo=     1
 LinEq1:  Iter= 13 NonCon=     1 RMS=5.20D-07 Max=1.19D-05 NDo=     1
 LinEq1:  Iter= 14 NonCon=     1 RMS=2.03D-07 Max=6.56D-06 NDo=     1
 LinEq1:  Iter= 15 NonCon=     1 RMS=8.73D-08 Max=3.75D-06 NDo=     1
 LinEq1:  Iter= 16 NonCon=     1 RMS=3.90D-08 Max=1.73D-06 NDo=     1
 LinEq1:  Iter= 17 NonCon=     1 RMS=1.47D-08 Max=4.45D-07 NDo=     1
 LinEq1:  Iter= 18 NonCon=     1 RMS=5.64D-09 Max=1.02D-07 NDo=     1
 LinEq1:  Iter= 19 NonCon=     1 RMS=1.68D-09 Max=3.39D-08 NDo=     1
 LinEq1:  Iter= 20 NonCon=     1 RMS=4.78D-10 Max=1.51D-08 NDo=     1
 LinEq1:  Iter= 21 NonCon=     1 RMS=1.69D-10 Max=3.34D-09 NDo=     1
 LinEq1:  Iter= 22 NonCon=     1 RMS=7.44D-11 Max=1.72D-09 NDo=     1
 LinEq1:  Iter= 23 NonCon=     0 RMS=2.30D-11 Max=8.63D-10 NDo=     1
 Linear equations converged to 1.000D-10 1.000D-09 after    23 iterations.
 PCM Corrected Linear-Response - Equilibrium solvation:
 Corrected transition energy               =    3.9823          eV
 Total energy after correction             = -633.181694471     a.u.
 NEqPCM:  Using non-equilibrium solvation (IEInf=1, Eps=   7.4257, EpsInf=   1.9740)
 Inv3:  Mode=1 IEnd=    13330992.
 Iteration    1 A*A^-1 deviation from unit magnitude is 4.00D-15 for    509.
 Iteration    1 A*A^-1 deviation from orthogonality  is 1.57D-15 for    580    404.
 Iteration    1 A^-1*A deviation from unit magnitude is 4.22D-15 for    509.
 Iteration    1 A^-1*A deviation from orthogonality  is 1.55D-15 for   2090    987.
 NEqSol: Computing the dynamic-inertial partition of the PCM polarization charges.
 End of Minotr F.D. properties file   721 does not exist.
 End of Minotr F.D. properties file   722 does not exist.
 End of Minotr F.D. properties file   788 does not exist.
 Leave Link 1002 at Fri Jan 23 20:55:08 2026, MaxMem=  2147483648 cpu:            1905.8 elap:             119.9
 (Enter /data/home/wyx/g16/l601.exe)
 Copying SCF densities to generalized density rwf, IOpCl= 0 IROHF=0.

 **********************************************************************

            Population analysis using the CI density.

 **********************************************************************

 Orbital symmetries:
       Occupied  (A) (A) (A) (A) (A) (A) (A) (A) (A) (A) (A) (A)
                 (A) (A) (A) (A) (A) (A) (A) (A) (A) (A) (A) (A)
                 (A) (A) (A) (A) (A) (A) (A) (A) (A) (A) (A) (A)
                 (A) (A) (A) (A) (A) (A) (A) (A) (A) (A) (A) (A)
                 (A) (A) (A) (A)
       Virtual   (A) (A) (A) (A) (A) (A) (A) (A) (A) (A) (A) (A)
                 (A) (A) (A) (A) (A) (A) (A) (A) (A) (A) (A) (A)
                 (A) (A) (A) (A) (A) (A) (A) (A) (A) (A) (A) (A)
                 (A) (A) (A) (A) (A) (A) (A) (A) (A) (A) (A) (A)
                 (A) (A) (A) (A) (A) (A) (A) (A) (A) (A) (A) (A)
                 (A) (A) (A) (A) (A) (A) (A) (A) (A) (A) (A) (A)
                 (A) (A) (A) (A) (A) (A) (A) (A) (A) (A) (A) (A)
                 (A) (A) (A) (A) (A) (A) (A) (A) (A) (A) (A) (A)
                 (A) (A) (A) (A) (A) (A) (A) (A) (A) (A) (A) (A)
                 (A) (A) (A) (A) (A) (A) (A) (A) (A) (A) (A) (A)
                 (A) (A) (A) (A) (A) (A) (A) (A) (A) (A) (A) (A)
                 (A) (A) (A) (A) (A) (A) (A) (A) (A) (A) (A) (A)
                 (A) (A) (A) (A) (A) (A) (A) (A) (A) (A) (A) (A)
                 (A) (A) (A) (A) (A) (A) (A) (A) (A) (A) (A) (A)
                 (A) (A) (A) (A) (A) (A) (A) (A) (A) (A) (A) (A)
                 (A) (A) (A) (A) (A) (A) (A) (A) (A) (A) (A) (A)
                 (A) (A) (A) (A) (A) (A) (A) (A) (A) (A) (A) (A)
                 (A) (A) (A) (A) (A) (A) (A) (A) (A) (A) (A) (A)
                 (A) (A) (A) (A) (A) (A) (A) (A) (A) (A) (A) (A)
                 (A) (A) (A) (A) (A) (A) (A) (A) (A) (A) (A) (A)
                 (A) (A) (A) (A) (A) (A) (A) (A) (A) (A) (A) (A)
                 (A) (A) (A) (A) (A) (A) (A) (A) (A) (A) (A) (A)
                 (A) (A) (A) (A) (A) (A) (A) (A) (A) (A) (A) (A)
                 (A) (A) (A) (A) (A) (A) (A) (A) (A) (A) (A) (A)
                 (A) (A) (A) (A) (A) (A) (A) (A) (A) (A) (A) (A)
                 (A) (A) (A) (A)
 The electronic state is 1-A.
 Alpha  occ. eigenvalues --  -19.17848 -19.17210 -14.44268 -10.33409 -10.32925
 Alpha  occ. eigenvalues --  -10.32208 -10.31613 -10.25985 -10.25135 -10.24832
 Alpha  occ. eigenvalues --  -10.24683 -10.24517 -10.24257 -10.23620  -1.11887
 Alpha  occ. eigenvalues --   -1.11414  -1.07775  -0.91321  -0.90332  -0.83885
 Alpha  occ. eigenvalues --   -0.82595  -0.81648  -0.78541  -0.73987  -0.71428
 Alpha  occ. eigenvalues --   -0.68617  -0.61601  -0.58256  -0.56848  -0.55188
 Alpha  occ. eigenvalues --   -0.54600  -0.54003  -0.52596  -0.51902  -0.50814
 Alpha  occ. eigenvalues --   -0.49926  -0.49534  -0.49192  -0.48636  -0.48135
 Alpha  occ. eigenvalues --   -0.46954  -0.45304  -0.45155  -0.43578  -0.43113
 Alpha  occ. eigenvalues --   -0.42343  -0.42136  -0.41886  -0.32767  -0.32200
 Alpha  occ. eigenvalues --   -0.31187  -0.25888
 Alpha virt. eigenvalues --   -0.02481   0.02547   0.06286   0.08070   0.08489
 Alpha virt. eigenvalues --    0.09986   0.10733   0.11879   0.12597   0.13518
 Alpha virt. eigenvalues --    0.14107   0.14862   0.15622   0.16166   0.16916
 Alpha virt. eigenvalues --    0.17537   0.17844   0.17978   0.18155   0.19198
 Alpha virt. eigenvalues --    0.19922   0.22097   0.22777   0.23425   0.23721
 Alpha virt. eigenvalues --    0.23935   0.24833   0.25604   0.26043   0.26504
 Alpha virt. eigenvalues --    0.26946   0.27513   0.28919   0.28971   0.30126
 Alpha virt. eigenvalues --    0.31682   0.31964   0.32597   0.33574   0.34385
 Alpha virt. eigenvalues --    0.35227   0.35974   0.36703   0.38125   0.38752
 Alpha virt. eigenvalues --    0.39971   0.40966   0.41618   0.42127   0.42650
 Alpha virt. eigenvalues --    0.44007   0.44405   0.45501   0.46092   0.46271
 Alpha virt. eigenvalues --    0.47277   0.47701   0.48100   0.48238   0.49059
 Alpha virt. eigenvalues --    0.49471   0.50490   0.50819   0.51390   0.51669
 Alpha virt. eigenvalues --    0.52810   0.53138   0.53409   0.54159   0.54300
 Alpha virt. eigenvalues --    0.54536   0.55837   0.56178   0.56586   0.58282
 Alpha virt. eigenvalues --    0.58756   0.59039   0.60821   0.61087   0.62691
 Alpha virt. eigenvalues --    0.63388   0.65743   0.66167   0.66439   0.67963
 Alpha virt. eigenvalues --    0.68623   0.70133   0.71158   0.72199   0.72935
 Alpha virt. eigenvalues --    0.73257   0.73919   0.74792   0.75983   0.77830
 Alpha virt. eigenvalues --    0.78350   0.79826   0.82300   0.84846   0.85282
 Alpha virt. eigenvalues --    0.89697   0.93619   1.00085   1.01514   1.24041
 Alpha virt. eigenvalues --    1.25471   1.27110   1.27776   1.29420   1.31440
 Alpha virt. eigenvalues --    1.32558   1.33036   1.34052   1.34913   1.36033
 Alpha virt. eigenvalues --    1.36501   1.37321   1.38279   1.39143   1.39907
 Alpha virt. eigenvalues --    1.40032   1.40338   1.40988   1.41521   1.41755
 Alpha virt. eigenvalues --    1.43348   1.44126   1.44442   1.45128   1.47129
 Alpha virt. eigenvalues --    1.48092   1.49227   1.49661   1.50399   1.51133
 Alpha virt. eigenvalues --    1.51954   1.52413   1.53469   1.54612   1.57822
 Alpha virt. eigenvalues --    1.58339   1.60624   1.60714   1.61359   1.62303
 Alpha virt. eigenvalues --    1.62707   1.63393   1.64172   1.64995   1.65718
 Alpha virt. eigenvalues --    1.66941   1.67307   1.67705   1.68275   1.68528
 Alpha virt. eigenvalues --    1.68775   1.69882   1.70404   1.71852   1.72308
 Alpha virt. eigenvalues --    1.73541   1.75196   1.76122   1.76626   1.78812
 Alpha virt. eigenvalues --    1.80302   1.83052   1.84278   1.86081   1.86549
 Alpha virt. eigenvalues --    1.86889   1.87527   1.88558   1.88977   1.90747
 Alpha virt. eigenvalues --    1.91271   1.94544   1.95159   1.98494   1.99738
 Alpha virt. eigenvalues --    2.01038   2.03848   2.04784   2.06574   2.09525
 Alpha virt. eigenvalues --    2.11152   2.12794   2.14703   2.17013   2.19564
 Alpha virt. eigenvalues --    2.20230   2.21345   2.21878   2.22852   2.26054
 Alpha virt. eigenvalues --    2.27111   2.27520   2.29187   2.30900   2.31766
 Alpha virt. eigenvalues --    2.33410   2.34543   2.36547   2.37238   2.38162
 Alpha virt. eigenvalues --    2.39503   2.40232   2.41631   2.43543   2.44872
 Alpha virt. eigenvalues --    2.46006   2.47839   2.50216   2.50598   2.51798
 Alpha virt. eigenvalues --    2.52403   2.53770   2.54968   2.56794   2.58480
 Alpha virt. eigenvalues --    2.59022   2.60288   2.61267   2.62192   2.62798
 Alpha virt. eigenvalues --    2.64502   2.65775   2.66950   2.67480   2.68974
 Alpha virt. eigenvalues --    2.71316   2.72034   2.72861   2.73767   2.75149
 Alpha virt. eigenvalues --    2.76072   2.76513   2.77413   2.78031   2.79473
 Alpha virt. eigenvalues --    2.80707   2.81641   2.83416   2.83552   2.84541
 Alpha virt. eigenvalues --    2.85583   2.86278   2.88028   2.90159   2.91829
 Alpha virt. eigenvalues --    2.97765   3.00029   3.00801   3.04507   3.10533
 Alpha virt. eigenvalues --    3.12350   3.15800   3.16862   3.17309   3.20663
 Alpha virt. eigenvalues --    3.21393   3.22511   3.24847   3.26349   3.27145
 Alpha virt. eigenvalues --    3.27647   3.29777   3.33431   3.34696   3.36669
 Alpha virt. eigenvalues --    3.37219   3.38807   3.39895   3.40331   3.41764
 Alpha virt. eigenvalues --    3.42546   3.44764   3.45525   3.46974   3.48058
 Alpha virt. eigenvalues --    3.49072   3.49560   3.55201   3.58409   3.59864
 Alpha virt. eigenvalues --    3.60566   3.90261   3.99833   4.34246   4.36441
 Alpha virt. eigenvalues --   21.64449  21.79828  22.08393  22.10997  22.11825
 Alpha virt. eigenvalues --   22.14840  22.15325  22.18567  22.20731  22.24778
 Alpha virt. eigenvalues --   22.29852  31.92737  43.63237  43.65814
          Condensed to atoms (all electrons):
               1          2          3          4          5          6
     1  O    7.959540   0.000000  -0.000220   0.000019   0.017141   0.016455
     2  O    0.000000   7.979036   0.000799   0.000024  -0.104308   0.000201
     3  N   -0.000220   0.000799   6.394418   0.373297  -0.092457   0.375766
     4  H    0.000019   0.000024   0.373297   0.421747   0.017571  -0.048673
     5  C    0.017141  -0.104308  -0.092457   0.017571   6.076934  -0.078173
     6  C    0.016455   0.000201   0.375766  -0.048673  -0.078173   5.631525
     7  C   -0.000589   0.007205   0.321689  -0.041680   0.301587  -0.111505
     8  C    0.000093   0.319741   0.014207  -0.001006   0.322209   0.019131
     9  C   -0.022891   0.009820   0.002365  -0.000290  -0.399090  -0.093082
    10  H    0.015372   0.000008  -0.001131   0.000024  -0.107365   0.024833
    11  H    0.005036   0.000017   0.004267   0.000019  -0.029139  -0.018560
    12  C   -0.230182  -0.000683  -0.099474   0.015886   0.185001  -0.171188
    13  C    0.700745   0.000024   0.000380   0.000474   0.081206   0.166508
    14  C   -0.000006   0.007415  -0.030226  -0.008342  -0.092441   0.011923
    15  H    0.000000   0.000872   0.003227   0.002182   0.016683   0.004174
    16  H    0.000000  -0.000754   0.000895   0.000681   0.001429  -0.001111
    17  H   -0.000000  -0.002223  -0.001627   0.000734  -0.000120  -0.000721
    18  C    0.000006  -0.048616  -0.000394   0.000015  -0.032662  -0.000229
    19  H   -0.000004   0.000826  -0.000001  -0.000001   0.009988   0.000095
    20  H    0.000038   0.002355   0.000043   0.000000  -0.009811  -0.000491
    21  H   -0.000096   0.002518  -0.000024   0.000000  -0.013413  -0.000115
    22  C   -0.105727   0.000000  -0.000021   0.000129   0.004585  -0.008959
    23  H    0.001620  -0.000000  -0.000022  -0.000017  -0.000083   0.011109
    24  H    0.004802  -0.000000  -0.000003  -0.000054  -0.000628  -0.031144
    25  H    0.007844  -0.000000   0.000035  -0.000003  -0.000167  -0.001285
    26  C    0.000822   0.000002  -0.032880  -0.006278  -0.002513   0.169410
    27  H   -0.000049   0.000000  -0.003452   0.000468   0.000441  -0.036278
    28  H   -0.000307   0.000000   0.002266   0.000877  -0.000128  -0.056267
    29  H    0.000029  -0.000000   0.000819   0.001334  -0.000364  -0.048502
               7          8          9         10         11         12
     1  O   -0.000589   0.000093  -0.022891   0.015372   0.005036  -0.230182
     2  O    0.007205   0.319741   0.009820   0.000008   0.000017  -0.000683
     3  N    0.321689   0.014207   0.002365  -0.001131   0.004267  -0.099474
     4  H   -0.041680  -0.001006  -0.000290   0.000024   0.000019   0.015886
     5  C    0.301587   0.322209  -0.399090  -0.107365  -0.029139   0.185001
     6  C   -0.111505   0.019131  -0.093082   0.024833  -0.018560  -0.171188
     7  C    5.534565  -0.124940  -0.071496   0.017819  -0.008836  -0.015285
     8  C   -0.124940   5.395132  -0.028233  -0.013188  -0.005682  -0.021009
     9  C   -0.071496  -0.028233   6.374133   0.528464   0.389998  -0.130407
    10  H    0.017819  -0.013188   0.528464   0.516036  -0.040562  -0.108005
    11  H   -0.008836  -0.005682   0.389998  -0.040562   0.564997  -0.012781
    12  C   -0.015285  -0.021009  -0.130407  -0.108005  -0.012781   7.391700
    13  C    0.008297  -0.002766  -0.284302  -0.000386   0.001689  -0.355347
    14  C    0.207709  -0.022240   0.014503   0.000577  -0.001227  -0.006154
    15  H   -0.057575   0.000974  -0.000999  -0.000002   0.000064  -0.000150
    16  H   -0.052993  -0.013088  -0.000127  -0.000059   0.000157   0.000038
    17  H   -0.050464  -0.004728   0.001430   0.000060  -0.000069  -0.000025
    18  C    0.013764   0.187912  -0.024464   0.009962  -0.010671  -0.002611
    19  H   -0.000140  -0.046483   0.003183   0.000576  -0.000178  -0.000833
    20  H    0.000624  -0.035432   0.002951  -0.005972   0.003135   0.001920
    21  H   -0.000917  -0.052788  -0.012224  -0.001717   0.001270   0.003026
    22  C   -0.000106  -0.000037  -0.000160   0.000748   0.001961  -0.259891
    23  H    0.000038  -0.000000  -0.002441  -0.000133   0.000158  -0.011676
    24  H   -0.000003  -0.000008   0.003504  -0.000057  -0.000136   0.065326
    25  H    0.000010   0.000002   0.000703  -0.000100  -0.000060   0.022339
    26  C    0.000937   0.000447   0.029469   0.000023  -0.000960  -0.084263
    27  H    0.000446  -0.000033  -0.001545   0.000044  -0.000014  -0.017289
    28  H   -0.001029   0.000008   0.001124   0.000012  -0.000131  -0.003593
    29  H    0.003931  -0.000011  -0.001214  -0.000012   0.000119   0.022738
              13         14         15         16         17         18
     1  O    0.700745  -0.000006   0.000000   0.000000  -0.000000   0.000006
     2  O    0.000024   0.007415   0.000872  -0.000754  -0.002223  -0.048616
     3  N    0.000380  -0.030226   0.003227   0.000895  -0.001627  -0.000394
     4  H    0.000474  -0.008342   0.002182   0.000681   0.000734   0.000015
     5  C    0.081206  -0.092441   0.016683   0.001429  -0.000120  -0.032662
     6  C    0.166508   0.011923   0.004174  -0.001111  -0.000721  -0.000229
     7  C    0.008297   0.207709  -0.057575  -0.052993  -0.050464   0.013764
     8  C   -0.002766  -0.022240   0.000974  -0.013088  -0.004728   0.187912
     9  C   -0.284302   0.014503  -0.000999  -0.000127   0.001430  -0.024464
    10  H   -0.000386   0.000577  -0.000002  -0.000059   0.000060   0.009962
    11  H    0.001689  -0.001227   0.000064   0.000157  -0.000069  -0.010671
    12  C   -0.355347  -0.006154  -0.000150   0.000038  -0.000025  -0.002611
    13  C    5.455583  -0.000189   0.000015  -0.000001  -0.000026   0.000567
    14  C   -0.000189   5.122072   0.396078   0.442881   0.425103   0.002340
    15  H    0.000015   0.396078   0.546841  -0.023053  -0.022576   0.000020
    16  H   -0.000001   0.442881  -0.023053   0.515343  -0.033908  -0.000519
    17  H   -0.000026   0.425103  -0.022576  -0.033908   0.524044  -0.000587
    18  C    0.000567   0.002340   0.000020  -0.000519  -0.000587   5.092973
    19  H   -0.000042   0.000030   0.000003   0.000060   0.000026   0.401141
    20  H    0.000077  -0.000295  -0.000002   0.000028   0.000031   0.407858
    21  H    0.000071  -0.000235   0.000001  -0.000011  -0.000044   0.433452
    22  C    0.284090  -0.000026   0.000002  -0.000000  -0.000000   0.000012
    23  H   -0.026059  -0.000001   0.000000  -0.000000  -0.000000  -0.000002
    24  H   -0.092085   0.000000  -0.000000   0.000000   0.000000   0.000003
    25  H   -0.040235   0.000001  -0.000000   0.000000   0.000000  -0.000001
    26  C   -0.053577   0.001527  -0.000089   0.000072  -0.000073   0.000022
    27  H    0.006730  -0.000167   0.000007   0.000002  -0.000022  -0.000001
    28  H   -0.005347   0.000099  -0.000014  -0.000000   0.000002   0.000000
    29  H   -0.000369  -0.000315   0.000124  -0.000010  -0.000000  -0.000000
              19         20         21         22         23         24
     1  O   -0.000004   0.000038  -0.000096  -0.105727   0.001620   0.004802
     2  O    0.000826   0.002355   0.002518   0.000000  -0.000000  -0.000000
     3  N   -0.000001   0.000043  -0.000024  -0.000021  -0.000022  -0.000003
     4  H   -0.000001   0.000000   0.000000   0.000129  -0.000017  -0.000054
     5  C    0.009988  -0.009811  -0.013413   0.004585  -0.000083  -0.000628
     6  C    0.000095  -0.000491  -0.000115  -0.008959   0.011109  -0.031144
     7  C   -0.000140   0.000624  -0.000917  -0.000106   0.000038  -0.000003
     8  C   -0.046483  -0.035432  -0.052788  -0.000037  -0.000000  -0.000008
     9  C    0.003183   0.002951  -0.012224  -0.000160  -0.002441   0.003504
    10  H    0.000576  -0.005972  -0.001717   0.000748  -0.000133  -0.000057
    11  H   -0.000178   0.003135   0.001270   0.001961   0.000158  -0.000136
    12  C   -0.000833   0.001920   0.003026  -0.259891  -0.011676   0.065326
    13  C   -0.000042   0.000077   0.000071   0.284090  -0.026059  -0.092085
    14  C    0.000030  -0.000295  -0.000235  -0.000026  -0.000001   0.000000
    15  H    0.000003  -0.000002   0.000001   0.000002   0.000000  -0.000000
    16  H    0.000060   0.000028  -0.000011  -0.000000  -0.000000   0.000000
    17  H    0.000026   0.000031  -0.000044  -0.000000  -0.000000   0.000000
    18  C    0.401141   0.407858   0.433452   0.000012  -0.000002   0.000003
    19  H    0.510665  -0.018494  -0.025599  -0.000001  -0.000000   0.000000
    20  H   -0.018494   0.517208  -0.038930   0.000009  -0.000000  -0.000000
    21  H   -0.025599  -0.038930   0.525468   0.000002   0.000000  -0.000000
    22  C   -0.000001   0.000009   0.000002   5.423204   0.403735   0.397172
    23  H   -0.000000  -0.000000   0.000000   0.403735   0.503298  -0.028147
    24  H    0.000000  -0.000000  -0.000000   0.397172  -0.028147   0.545015
    25  H    0.000000   0.000000  -0.000001   0.382607  -0.009915  -0.021700
    26  C    0.000001  -0.000005  -0.000006  -0.029593  -0.013969   0.014864
    27  H   -0.000000  -0.000000   0.000001  -0.010125   0.001361  -0.001984
    28  H    0.000000   0.000000  -0.000000   0.006184  -0.001528  -0.009151
    29  H   -0.000000   0.000000   0.000000   0.002040   0.000227   0.000703
              25         26         27         28         29
     1  O    0.007844   0.000822  -0.000049  -0.000307   0.000029
     2  O   -0.000000   0.000002   0.000000   0.000000  -0.000000
     3  N    0.000035  -0.032880  -0.003452   0.002266   0.000819
     4  H   -0.000003  -0.006278   0.000468   0.000877   0.001334
     5  C   -0.000167  -0.002513   0.000441  -0.000128  -0.000364
     6  C   -0.001285   0.169410  -0.036278  -0.056267  -0.048502
     7  C    0.000010   0.000937   0.000446  -0.001029   0.003931
     8  C    0.000002   0.000447  -0.000033   0.000008  -0.000011
     9  C    0.000703   0.029469  -0.001545   0.001124  -0.001214
    10  H   -0.000100   0.000023   0.000044   0.000012  -0.000012
    11  H   -0.000060  -0.000960  -0.000014  -0.000131   0.000119
    12  C    0.022339  -0.084263  -0.017289  -0.003593   0.022738
    13  C   -0.040235  -0.053577   0.006730  -0.005347  -0.000369
    14  C    0.000001   0.001527  -0.000167   0.000099  -0.000315
    15  H   -0.000000  -0.000089   0.000007  -0.000014   0.000124
    16  H    0.000000   0.000072   0.000002  -0.000000  -0.000010
    17  H    0.000000  -0.000073  -0.000022   0.000002  -0.000000
    18  C   -0.000001   0.000022  -0.000001   0.000000  -0.000000
    19  H    0.000000   0.000001  -0.000000   0.000000  -0.000000
    20  H    0.000000  -0.000005  -0.000000   0.000000   0.000000
    21  H   -0.000001  -0.000006   0.000001  -0.000000   0.000000
    22  C    0.382607  -0.029593  -0.010125   0.006184   0.002040
    23  H   -0.009915  -0.013969   0.001361  -0.001528   0.000227
    24  H   -0.021700   0.014864  -0.001984  -0.009151   0.000703
    25  H    0.499823   0.001874   0.000028   0.000965  -0.000047
    26  C    0.001874   5.271158   0.424080   0.435662   0.387946
    27  H    0.000028   0.424080   0.498055  -0.029732  -0.019210
    28  H    0.000965   0.435662  -0.029732   0.521441  -0.027645
    29  H   -0.000047   0.387946  -0.019210  -0.027645   0.528899
 Mulliken charges:
               1
     1  O   -0.369490
     2  O   -0.174278
     3  N   -0.232543
     4  H    0.270861
     5  C   -0.071912
     6  C    0.275150
     7  C    0.118936
     8  C    0.111816
     9  C   -0.288680
    10  H    0.164132
    11  H    0.156122
    12  C   -0.177128
    13  C    0.154274
    14  C   -0.470393
    15  H    0.133193
    16  H    0.164049
    17  H    0.165781
    18  C   -0.429294
    19  H    0.165181
    20  H    0.173156
    21  H    0.180311
    22  C   -0.491834
    23  H    0.172446
    24  H    0.153710
    25  H    0.157283
    26  C   -0.514110
    27  H    0.188237
    28  H    0.166231
    29  H    0.148792
 Sum of Mulliken charges =  -0.00000
 Mulliken charges with hydrogens summed into heavy atoms:
               1
     1  O   -0.369490
     2  O   -0.174278
     3  N    0.038318
     5  C   -0.071912
     6  C    0.275150
     7  C    0.118936
     8  C    0.111816
     9  C    0.031574
    12  C   -0.177128
    13  C    0.154274
    14  C   -0.007370
    18  C    0.089354
    22  C   -0.008395
    26  C   -0.010849
 Electronic spatial extent (au):  <R**2>=           3180.6056
 Charge=             -0.0000 electrons
 Dipole moment (field-independent basis, Debye):
    X=              0.2457    Y=              5.7885    Z=              0.2117  Tot=              5.7976
 Quadrupole moment (field-independent basis, Debye-Ang):
   XX=            -86.6934   YY=            -78.9043   ZZ=            -86.2323
   XY=             15.3692   XZ=              3.4387   YZ=             -1.5283
 Traceless Quadrupole moment (field-independent basis, Debye-Ang):
   XX=             -2.7501   YY=              5.0391   ZZ=             -2.2890
   XY=             15.3692   XZ=              3.4387   YZ=             -1.5283
 Octapole moment (field-independent basis, Debye-Ang**2):
  XXX=             42.6575  YYY=             52.8303  ZZZ=              1.9966  XYY=            -41.6054
  XXY=             16.8955  XXZ=             -1.6646  XZZ=              1.4729  YZZ=             -2.3367
  YYZ=              2.9453  XYZ=             -4.8283
 Hexadecapole moment (field-independent basis, Debye-Ang**3):
 XXXX=          -2812.9207 YYYY=          -1274.2670 ZZZZ=           -157.1982 XXXY=             82.7207
 XXXZ=             29.4322 YYYX=            103.8706 YYYZ=            -19.2891 ZZZX=             -3.6933
 ZZZY=              5.1872 XXYY=           -680.3379 XXZZ=           -486.7215 YYZZ=           -245.6880
 XXYZ=            -10.1724 YYXZ=              8.2870 ZZXY=              0.3733
 N-N= 9.007546163436D+02 E-N=-3.277754866915D+03  KE= 6.308341041321D+02
 No NMR shielding tensors so no spin-rotation constants.
 Leave Link  601 at Fri Jan 23 20:55:08 2026, MaxMem=  2147483648 cpu:               1.8 elap:               0.1
 (Enter /data/home/wyx/g16/l9999.exe)
 Electronic transition elements 
                 1             2             3             4             5 
      1  -0.633206D+03 -0.633179D+03 -0.633174D+03 -0.633143D+03 -0.633125D+03
      2  -0.158355D+01 -0.114571D+00 -0.617919D-01  0.386507D+00  0.437070D+00
      3  -0.360409D+00 -0.563970D-01  0.125996D+00 -0.171651D+01 -0.142106D+01
      4  -0.122345D+00  0.317207D-01 -0.436265D-01  0.199178D+00  0.101871D+00
      5   0.184911D+00  0.159111D-01  0.936451D-02 -0.651057D-01 -0.862457D-01
      6   0.458068D-01  0.849596D-02 -0.180173D-01  0.306334D+00  0.282887D+00
      7   0.131918D-01 -0.197313D-02  0.317578D-02 -0.314572D-01 -0.212297D-01
      8   0.921157D-01  0.831483D+00  0.513414D+00  0.785029D-01  0.175582D+00
      9  -0.322660D-01  0.141747D+00 -0.883578D+00 -0.745133D-01 -0.313959D-01
     10  -0.144726D+01 -0.210303D+00 -0.117788D+00  0.906597D-01  0.311323D+00
     11   0.182614D+00  0.385488D-01  0.253310D-01 -0.117658D+01 -0.569722D+00
     12  -0.269827D+00 -0.324389D-01 -0.387846D-01  0.173595D+00  0.328974D+00
     13   0.165684D-01 -0.688461D-02  0.388288D-01  0.854196D-02  0.516491D-01
     14  -0.499480D+00 -0.431711D-01 -0.412453D-01 -0.434634D+00 -0.742454D-01
     15   0.781531D-01 -0.822321D-02  0.590175D-01 -0.251221D-01 -0.147145D-01
     16  -0.193819D-01  0.815169D-01  0.274809D-01 -0.722180D-01  0.391022D-01
                 6 
      1  -0.633109D+03
      2  -0.597819D-01
      3   0.234290D+00
      4   0.536394D-01
      5   0.135393D-01
      6  -0.488698D-01
      7  -0.313498D-01
      8  -0.166643D-01
      9  -0.172130D-01
     10   0.164053D-01
     11  -0.226149D+00
     12  -0.191457D+00
     13   0.171245D+00
     14  -0.217565D-02
     15  -0.326613D-01
     16   0.709954D-01
 1\1\GINC-CN012\SP\RCAM-B3LYP TD-FC\TZVP\C11H15N1O2\WYX\23-Jan-2026\0\\
 #p CAM-B3LYP TZVP em=gd3bj td(nstates=6,root=2) scrf=(Solvent=TetraHyd
 roFuran,CorrectedLR,NonEquilibrium=Save) Geom=Check Guess=Read\\Title 
 Card Required\\0,1\O,0,2.836357,-1.566381,0.130446\O,0,-3.421792,-1.62
 6118,0.035495\N,0,-0.64043,1.511966,-0.332319\H,0,-0.949967,2.46982,-0
 .385617\C,0,-1.239668,-0.758331,-0.219287\C,0,0.697053,1.305756,-0.090
 736\C,0,-1.616079,0.552338,-0.282568\C,0,-2.221687,-1.831505,-0.115229
 \C,0,0.215078,-1.106264,-0.323646\H,0,0.456719,-1.94429,0.329808\H,0,0
 .444809,-1.485486,-1.330139\C,0,1.150681,0.02331,-0.003572\C,0,2.51380
 2,-0.395236,0.315459\C,0,-3.00558,1.091293,-0.307278\H,0,-3.008114,2.1
 52041,-0.552675\H,0,-3.620786,0.561461,-1.026322\H,0,-3.487641,0.96226
 ,0.658872\C,0,-1.727244,-3.251228,-0.189604\H,0,-2.570383,-3.922728,-0
 .309579\H,0,-1.027384,-3.40283,-1.007673\H,0,-1.203902,-3.520473,0.727
 154\C,0,3.538268,0.540583,0.909717\H,0,4.051458,1.093172,0.120607\H,0,
 3.109912,1.258259,1.604516\H,0,4.278866,-0.066402,1.425225\C,0,1.46782
 ,2.580997,0.032041\H,0,1.556226,2.893582,1.072522\H,0,2.465013,2.49985
 3,-0.381636\H,0,0.958596,3.38058,-0.503982\\Version=ES64L-G16RevA.03\S
 tate=1-A\HF=-633.3280418\RMSD=2.862e-09\Dipole=-0.6763862,2.1780012,-0
 .0395666\Quadrupole=-9.1445465,10.3260491,-1.1815025,7.0573085,1.79054
 17,0.3414049\PG=C01 [X(C11H15N1O2)]\\@


 Everywhere is walking distance if you have the time.
                                    -- Steven Wright
 Job cpu time:       0 days  2 hours 42 minutes 11.8 seconds.
 Elapsed time:       0 days  0 hours 10 minutes 11.2 seconds.
 File lengths (MBytes):  RWF=    735 Int=      0 D2E=      0 Chk=     67 Scr=      1
 Normal termination of Gaussian 16 at Fri Jan 23 20:55:10 2026.
