 Entering Gaussian System, Link 0=g16
 Input=DDL-S2-cLR-gs-15.gjf
 Output=DDL-S2-cLR-gs-15.log
 Initial command:
 /data/home/wyx/g16/l1.exe "/scr/tmp/wyx/13106/Gau-1988966.inp" -scrdir="/scr/tmp/wyx/13106/"
 Entering Link 1 = /data/home/wyx/g16/l1.exe PID=   1988967.
  
 Copyright (c) 1988,1990,1992,1993,1995,1998,2003,2009,2016,
            Gaussian, Inc.  All Rights Reserved.
  
 This is part of the Gaussian(R) 16 program.  It is based on
 the Gaussian(R) 09 system (copyright 2009, Gaussian, Inc.),
 the Gaussian(R) 03 system (copyright 2003, Gaussian, Inc.),
 the Gaussian(R) 98 system (copyright 1998, Gaussian, Inc.),
 the Gaussian(R) 94 system (copyright 1995, Gaussian, Inc.),
 the Gaussian 92(TM) system (copyright 1992, Gaussian, Inc.),
 the Gaussian 90(TM) system (copyright 1990, Gaussian, Inc.),
 the Gaussian 88(TM) system (copyright 1988, Gaussian, Inc.),
 the Gaussian 86(TM) system (copyright 1986, Carnegie Mellon
 University), and the Gaussian 82(TM) system (copyright 1983,
 Carnegie Mellon University). Gaussian is a federally registered
 trademark of Gaussian, Inc.
  
 This software contains proprietary and confidential information,
 including trade secrets, belonging to Gaussian, Inc.
  
 This software is provided under written license and may be
 used, copied, transmitted, or stored only in accord with that
 written license.
  
 The following legend is applicable only to US Government
 contracts under FAR:
  
                    RESTRICTED RIGHTS LEGEND
  
 Use, reproduction and disclosure by the US Government is
 subject to restrictions as set forth in subparagraphs (a)
 and (c) of the Commercial Computer Software - Restricted
 Rights clause in FAR 52.227-19.
  
 Gaussian, Inc.
 340 Quinnipiac St., Bldg. 40, Wallingford CT 06492
  
  
 ---------------------------------------------------------------
 Warning -- This program may not be used in any manner that
 competes with the business of Gaussian, Inc. or will provide
 assistance to any competitor of Gaussian, Inc.  The licensee
 of this program is prohibited from giving any competitor of
 Gaussian, Inc. access to this program.  By using this program,
 the user acknowledges that Gaussian, Inc. is engaged in the
 business of creating and licensing software in the field of
 computational chemistry and represents and warrants to the
 licensee that it is not a competitor of Gaussian, Inc. and that
 it will not use this program in any manner prohibited above.
 ---------------------------------------------------------------
  

 Cite this work as:
 Gaussian 16, Revision A.03,
 M. J. Frisch, G. W. Trucks, H. B. Schlegel, G. E. Scuseria, 
 M. A. Robb, J. R. Cheeseman, G. Scalmani, V. Barone, 
 G. A. Petersson, H. Nakatsuji, X. Li, M. Caricato, A. V. Marenich, 
 J. Bloino, B. G. Janesko, R. Gomperts, B. Mennucci, H. P. Hratchian, 
 J. V. Ortiz, A. F. Izmaylov, J. L. Sonnenberg, D. Williams-Young, 
 F. Ding, F. Lipparini, F. Egidi, J. Goings, B. Peng, A. Petrone, 
 T. Henderson, D. Ranasinghe, V. G. Zakrzewski, J. Gao, N. Rega, 
 G. Zheng, W. Liang, M. Hada, M. Ehara, K. Toyota, R. Fukuda, 
 J. Hasegawa, M. Ishida, T. Nakajima, Y. Honda, O. Kitao, H. Nakai, 
 T. Vreven, K. Throssell, J. A. Montgomery, Jr., J. E. Peralta, 
 F. Ogliaro, M. J. Bearpark, J. J. Heyd, E. N. Brothers, K. N. Kudin, 
 V. N. Staroverov, T. A. Keith, R. Kobayashi, J. Normand, 
 K. Raghavachari, A. P. Rendell, J. C. Burant, S. S. Iyengar, 
 J. Tomasi, M. Cossi, J. M. Millam, M. Klene, C. Adamo, R. Cammi, 
 J. W. Ochterski, R. L. Martin, K. Morokuma, O. Farkas, 
 J. B. Foresman, and D. J. Fox, Gaussian, Inc., Wallingford CT, 2016.
 
 ******************************************
 Gaussian 16:  ES64L-G16RevA.03 25-Dec-2016
                23-Jan-2026 
 ******************************************
 %nprocshared=16
 Will use up to   16 processors via shared memory.
 %mem=16GB
 %oldchk=DDL-S2-cLR-15.chk
 %chk=DDL-S2-cLR-gs-15.chk
 Copying data from "DDL-S2-cLR-15.chk" to current chk file "DDL-S2-cLR-gs-15.chk"
 IOpt=  2 FromEx=T IUOpen= 4 IOptOp= 5 NList=   0 IFRang= 0 IUIn= 4 IUOut= 2.
 ----------------------------------------------------------------------
 #p CAM-B3LYP TZVP em=gd3bj scrf=(Solvent=TetraHydroFuran,NonEquilibriu
 m=Read) Geom=Check Guess=Read
 ----------------------------------------------------------------------
 1/29=2,38=1,172=1/1;
 2/12=2,40=1/2;
 3/5=19,7=101,11=2,14=-4,25=1,30=1,70=6002201,72=20,74=-40,116=-2,124=41/1,2,3;
 4/5=1/1;
 5/5=2,38=6,53=20/2;
 6/7=2,8=2,9=2,10=2,28=1/1;
 99/5=1,9=1/99;
 Leave Link    1 at Fri Jan 23 22:55:28 2026, MaxMem=  2147483648 cpu:               0.8 elap:               0.2
 (Enter /data/home/wyx/g16/l101.exe)
 -------------------
 Title Card Required
 -------------------
 Structure from the checkpoint file:  "DDL-S2-cLR-gs-15.chk"
 Charge =  0 Multiplicity = 1
 Z-Matrix found in chk file.
 O,0,2.834769,-1.563886,0.161385
 O,0,-3.418074,-1.618637,0.094504
 N,0,-0.632321,1.509615,-0.381216
 H,0,-0.940976,2.46667,-0.435865
 C,0,-1.236512,-0.757182,-0.225422
 C,0,0.703177,1.296323,-0.113137
 C,0,-1.608964,0.543817,-0.297362
 C,0,-2.224821,-1.826886,-0.092604
 C,0,0.222077,-1.114544,-0.368954
 H,0,0.47334,-1.962353,0.265024
 H,0,0.434632,-1.459386,-1.389975
 C,0,1.151779,0.022178,-0.018677
 C,0,2.512064,-0.393041,0.330576
 C,0,-3.000627,1.08645,-0.292964
 H,0,-3.003224,2.136355,-0.584761
 H,0,-3.643933,0.525716,-0.963633
 H,0,-3.44185,1.001786,0.699085
 C,0,-1.731415,-3.248389,-0.190817
 H,0,-2.583883,-3.918704,-0.249238
 H,0,-1.087711,-3.394883,-1.057463
 H,0,-1.14225,-3.505898,0.690741
 C,0,3.528726,0.544907,0.935674
 H,0,4.044357,1.101933,0.151503
 H,0,3.091794,1.258574,1.629308
 H,0,4.268339,-0.060731,1.453982
 C,0,1.468319,2.575425,0.034916
 H,0,1.502689,2.892012,1.078205
 H,0,2.483846,2.496586,-0.332097
 H,0,0.976655,3.366175,-0.530715
 Recover connectivity data from disk.
 ITRead=  0  0  0  0  0  0  0  0  0  0  0  0  0  0  0  0  0  0  0  0
 ITRead=  0  0  0  0  0  0  0  0  0
 MicOpt= -1 -1 -1 -1 -1 -1 -1 -1 -1 -1 -1 -1 -1 -1 -1 -1 -1 -1 -1 -1
 MicOpt= -1 -1 -1 -1 -1 -1 -1 -1 -1
 NAtoms=     29 NQM=       29 NQMF=       0 NMMI=      0 NMMIF=      0
                NMic=       0 NMicF=      0.
                    Isotopes and Nuclear Properties:
 (Nuclear quadrupole moments (NQMom) in fm**2, nuclear magnetic moments (NMagM)
  in nuclear magnetons)

  Atom         1           2           3           4           5           6           7           8           9          10
 IAtWgt=          16          16          14           1          12          12          12          12          12           1
 AtmWgt=  15.9949146  15.9949146  14.0030740   1.0078250  12.0000000  12.0000000  12.0000000  12.0000000  12.0000000   1.0078250
 NucSpn=           0           0           2           1           0           0           0           0           0           1
 AtZEff=   5.6000000   5.6000000   4.5500000   1.0000000   3.6000000   3.6000000   3.6000000   3.6000000   3.6000000   1.0000000
 NQMom=    0.0000000   0.0000000   2.0440000   0.0000000   0.0000000   0.0000000   0.0000000   0.0000000   0.0000000   0.0000000
 NMagM=    0.0000000   0.0000000   0.4037610   2.7928460   0.0000000   0.0000000   0.0000000   0.0000000   0.0000000   2.7928460
 AtZNuc=   8.0000000   8.0000000   7.0000000   1.0000000   6.0000000   6.0000000   6.0000000   6.0000000   6.0000000   1.0000000

  Atom        11          12          13          14          15          16          17          18          19          20
 IAtWgt=           1          12          12          12           1           1           1          12           1           1
 AtmWgt=   1.0078250  12.0000000  12.0000000  12.0000000   1.0078250   1.0078250   1.0078250  12.0000000   1.0078250   1.0078250
 NucSpn=           1           0           0           0           1           1           1           0           1           1
 AtZEff=   1.0000000   3.6000000   3.6000000   3.6000000   1.0000000   1.0000000   1.0000000   3.6000000   1.0000000   1.0000000
 NQMom=    0.0000000   0.0000000   0.0000000   0.0000000   0.0000000   0.0000000   0.0000000   0.0000000   0.0000000   0.0000000
 NMagM=    2.7928460   0.0000000   0.0000000   0.0000000   2.7928460   2.7928460   2.7928460   0.0000000   2.7928460   2.7928460
 AtZNuc=   1.0000000   6.0000000   6.0000000   6.0000000   1.0000000   1.0000000   1.0000000   6.0000000   1.0000000   1.0000000

  Atom        21          22          23          24          25          26          27          28          29
 IAtWgt=           1          12           1           1           1          12           1           1           1
 AtmWgt=   1.0078250  12.0000000   1.0078250   1.0078250   1.0078250  12.0000000   1.0078250   1.0078250   1.0078250
 NucSpn=           1           0           1           1           1           0           1           1           1
 AtZEff=   1.0000000   3.6000000   1.0000000   1.0000000   1.0000000   3.6000000   1.0000000   1.0000000   1.0000000
 NQMom=    0.0000000   0.0000000   0.0000000   0.0000000   0.0000000   0.0000000   0.0000000   0.0000000   0.0000000
 NMagM=    2.7928460   0.0000000   2.7928460   2.7928460   2.7928460   0.0000000   2.7928460   2.7928460   2.7928460
 AtZNuc=   1.0000000   6.0000000   1.0000000   1.0000000   1.0000000   6.0000000   1.0000000   1.0000000   1.0000000
 Leave Link  101 at Fri Jan 23 22:55:31 2026, MaxMem=  2147483648 cpu:               0.9 elap:               0.1
 (Enter /data/home/wyx/g16/l202.exe)
                          Input orientation:                          
 ---------------------------------------------------------------------
 Center     Atomic      Atomic             Coordinates (Angstroms)
 Number     Number       Type             X           Y           Z
 ---------------------------------------------------------------------
      1          8           0        2.834769   -1.563886    0.161385
      2          8           0       -3.418074   -1.618637    0.094504
      3          7           0       -0.632321    1.509615   -0.381216
      4          1           0       -0.940976    2.466670   -0.435865
      5          6           0       -1.236512   -0.757182   -0.225422
      6          6           0        0.703177    1.296323   -0.113137
      7          6           0       -1.608964    0.543817   -0.297362
      8          6           0       -2.224821   -1.826886   -0.092604
      9          6           0        0.222077   -1.114544   -0.368954
     10          1           0        0.473340   -1.962353    0.265024
     11          1           0        0.434632   -1.459386   -1.389975
     12          6           0        1.151779    0.022178   -0.018677
     13          6           0        2.512064   -0.393041    0.330576
     14          6           0       -3.000627    1.086450   -0.292964
     15          1           0       -3.003224    2.136355   -0.584761
     16          1           0       -3.643933    0.525716   -0.963633
     17          1           0       -3.441850    1.001786    0.699085
     18          6           0       -1.731415   -3.248389   -0.190817
     19          1           0       -2.583883   -3.918704   -0.249238
     20          1           0       -1.087711   -3.394883   -1.057463
     21          1           0       -1.142250   -3.505898    0.690741
     22          6           0        3.528726    0.544907    0.935674
     23          1           0        4.044357    1.101933    0.151503
     24          1           0        3.091794    1.258574    1.629308
     25          1           0        4.268339   -0.060731    1.453982
     26          6           0        1.468319    2.575425    0.034916
     27          1           0        1.502689    2.892012    1.078205
     28          1           0        2.483846    2.496586   -0.332097
     29          1           0        0.976655    3.366175   -0.530715
 ---------------------------------------------------------------------
                    Distance matrix (angstroms):
                    1          2          3          4          5
     1  O    0.000000
     2  O    6.253440   0.000000
     3  N    4.664926   4.215767   0.000000
     4  H    5.555028   4.806978   1.007079   0.000000
     5  C    4.168419   2.367207   2.351103   3.244202   0.000000
     6  C    3.577687   5.052209   1.378737   2.043797   2.826992
     7  C    4.939598   2.846515   1.376092   2.040283   1.355173
     8  C    5.072783   1.225655   3.708314   4.494520   1.462416
     9  C    2.703577   3.703998   2.759775   3.765935   1.508572
    10  H    2.397053   3.910284   3.700632   4.701891   2.148620
    11  H    2.859772   4.131874   3.312242   4.268084   2.154529
    12  C    2.319585   4.856814   2.350939   3.244874   2.520730
    13  C    1.226231   6.060062   3.743515   4.548501   3.807040
    14  C    6.425151   2.764397   2.407432   2.483463   2.552576
    15  H    6.952027   3.838420   2.460775   2.093835   3.409245
    16  H    6.899687   2.401857   3.221347   3.369246   2.826032
    17  H    6.802039   2.689368   3.052604   3.112614   2.968535
    18  C    4.879716   2.362693   4.887009   5.774664   2.540126
    19  H    5.922463   2.470697   5.769979   6.595982   3.436742
    20  H    4.497109   3.148439   4.971800   5.896246   2.769820
    21  H    4.457388   3.016062   5.154075   6.081227   2.898910
    22  C    2.351193   7.324378   4.469807   5.054951   5.074551
    23  H    2.927421   7.943087   4.724543   5.202024   5.611235
    24  H    3.191730   7.280958   4.239606   4.689101   5.122258
    25  H    2.446509   7.959661   5.463553   6.090668   5.797312
    26  C    4.360857   6.439763   2.392030   2.457268   4.300018
    27  H    4.740256   6.747409   2.932439   2.905998   4.745449
    28  H    4.105375   7.207615   3.269101   3.426524   4.943627
    29  H    5.313858   6.674795   2.461294   2.120239   4.689711
                    6          7          8          9         10
     6  C    0.000000
     7  C    2.438483   0.000000
     8  C    4.281125   2.457934   0.000000
     9  C    2.471675   2.471436   2.563418   0.000000
    10  H    3.288586   3.306532   2.725128   1.088045   0.000000
    11  H    3.048994   3.063154   2.981764   1.098444   1.730172
    12  C    1.354109   2.823380   3.850445   1.509694   2.116395
    13  C    2.514539   4.272573   4.967200   2.500790   2.573603
    14  C    3.714101   1.493719   3.021514   3.903328   4.655641
    15  H    3.829555   2.136056   4.068834   4.584483   5.441327
    16  H    4.496059   2.141342   2.882240   4.241477   4.965080
    17  H    4.234112   2.135910   3.179515   4.363934   4.929832
    18  C    5.156324   3.795678   1.507901   2.898475   2.592802
    19  H    6.166019   4.568028   2.128183   3.968760   3.665841
    20  H    5.109447   4.045098   2.163929   2.718370   2.497598
    21  H    5.207029   4.194563   2.145850   2.950070   2.274620
    22  C    3.106181   5.283582   6.307619   3.922978   4.008929
    23  H    3.357277   5.698510   6.923883   4.448985   4.706899
    24  H    2.956862   5.130308   6.383685   4.226111   4.369433
    25  H    4.124056   6.162416   6.904517   4.561343   4.408152
    26  C    1.497820   3.702366   5.747685   3.915623   4.651275
    27  H    2.145865   4.133835   6.126428   4.448227   5.028487
    28  H    2.158554   4.534932   6.396977   4.261129   4.927558
    29  H    2.129190   3.834786   6.116312   4.546691   5.411075
                   11         12         13         14         15
    11  H    0.000000
    12  C    2.142379   0.000000
    13  C    2.900536   1.464500   0.000000
    14  C    4.414263   4.295391   5.741730   0.000000
    15  H    5.039502   4.696195   6.136293   1.089703   0.000000
    16  H    4.555995   4.913791   6.357310   1.085386   1.774320
    17  H    5.044666   4.751446   6.126209   1.089039   1.768587
    18  C    3.054549   4.363376   5.141204   4.517982   5.546905
    19  H    4.057211   5.434968   6.223758   5.022664   6.078829
    20  H    2.484802   4.215531   4.888362   4.932145   5.872583
    21  H    3.317250   4.267688   4.813897   5.050832   6.076607
    22  C    4.358813   2.614175   1.509799   6.665979   6.892808
    23  H    4.686857   3.092222   2.148240   7.059008   7.161041
    24  H    4.854265   2.829874   2.179593   6.390802   6.543840
    25  H    4.974097   3.447977   2.111154   7.563446   7.865068
    26  C    4.402104   2.573352   3.160476   4.721867   4.535579
    27  H    5.115401   3.092286   3.517010   5.041826   4.862070
    28  H    4.579094   2.827601   2.964772   5.662990   5.504684
    29  H    4.931344   3.387502   4.151025   4.590473   4.165911
                   16         17         18         19         20
    16  H    0.000000
    17  H    1.741296   0.000000
    18  C    4.301028   4.667066   0.000000
    19  H    4.624601   5.083960   1.086019   0.000000
    20  H    4.681257   5.287545   1.089445   1.779367   0.000000
    21  H    5.024866   5.060380   1.091133   1.769823   1.752574
    22  C    7.419890   6.989538   6.582337   7.661059   6.387960
    23  H    7.790081   7.506875   7.238924   8.324719   6.929724
    24  H    7.254684   6.604526   6.847548   7.908631   6.807471
    25  H    8.294144   7.819580   6.990249   8.045984   6.790523
    26  C    5.597636   5.198771   6.648764   7.659948   6.585678
    27  H    6.021310   5.307085   7.055095   8.052827   7.127152
    28  H    6.467831   6.197712   7.126929   8.175860   6.927596
    29  H    5.441090   5.160032   7.155531   8.113330   7.088792
                   21         22         23         24         25
    21  H    0.000000
    22  C    6.187651   0.000000
    23  H    6.958719   1.091365   0.000000
    24  H    6.442688   1.086903   1.765169   0.000000
    25  H    6.459581   1.087413   1.760229   1.776390   0.000000
    26  C    6.650388   3.029793   2.969974   2.629040   4.099168
    27  H    6.933908   3.103875   3.243954   2.344587   4.063092
    28  H    7.086931   2.551092   2.148050   2.397787   3.593656
    29  H    7.294320   4.077121   3.873372   3.685308   5.149552
                   26         27         28         29
    26  C    0.000000
    27  H    1.090807   0.000000
    28  H    1.082686   1.762947   0.000000
    29  H    1.089476   1.757887   1.751359   0.000000
 Stoichiometry    C11H15NO2
 Framework group  C1[X(C11H15NO2)]
 Deg. of freedom    81
 Full point group                 C1      NOp   1
 RotChk:  IX=0 Diff= 6.87D-16
 Largest Abelian subgroup         C1      NOp   1
 Largest concise Abelian subgroup C1      NOp   1
                         Standard orientation:                         
 ---------------------------------------------------------------------
 Center     Atomic      Atomic             Coordinates (Angstroms)
 Number     Number       Type             X           Y           Z
 ---------------------------------------------------------------------
      1          8           0        2.288173   -2.277117   -0.189024
      2          8           0       -3.590662   -0.245161    0.455929
      3          7           0        0.025749    1.801950   -0.253721
      4          1           0        0.054293    2.808609   -0.248223
      5          6           0       -1.289280   -0.139967   -0.088357
      6          6           0        1.230515    1.140379   -0.145196
      7          6           0       -1.206127    1.212645   -0.083923
      8          6           0       -2.562300   -0.826230    0.128730
      9          6           0       -0.058523   -0.952312   -0.406356
     10          1           0       -0.046744   -1.873299    0.172855
     11          1           0       -0.076681   -1.283671   -1.453472
     12          6           0        1.229935   -0.213694   -0.135255
     13          6           0        2.397793   -1.078598    0.045874
     14          6           0       -2.325458    2.185775    0.093026
     15          1           0       -2.002477    3.192857   -0.169502
     16          1           0       -3.183101    1.913962   -0.514121
     17          1           0       -2.669144    2.190814    1.126400
     18          6           0       -2.589674   -2.321824   -0.061575
     19          1           0       -3.619655   -2.665473   -0.039641
     20          1           0       -2.122039   -2.619557   -0.999426
     21          1           0       -2.037958   -2.815170    0.740167
     22          6           0        3.725755   -0.571876    0.555031
     23          1           0        4.318989   -0.170152   -0.268235
     24          1           0        3.625970    0.201633    1.312056
     25          1           0        4.265001   -1.420139    0.969918
     26          6           0        2.392987    2.080342   -0.052517
     27          1           0        2.634975    2.301610    0.987840
     28          1           0        3.280866    1.691396   -0.534804
     29          1           0        2.143647    3.023306   -0.537911
 ---------------------------------------------------------------------
 Rotational constants (GHZ):           1.0786639           0.4907029           0.3470699
 Leave Link  202 at Fri Jan 23 22:55:31 2026, MaxMem=  2147483648 cpu:               0.0 elap:               0.0
 (Enter /data/home/wyx/g16/l301.exe)
 Standard basis: TZVP (5D, 7F)
 Ernie: Thresh=  0.10000D-02 Tol=  0.10000D-05 Strict=F.
 There are   370 symmetry adapted cartesian basis functions of A   symmetry.
 There are   356 symmetry adapted basis functions of A   symmetry.
   356 basis functions,   610 primitive gaussians,   370 cartesian basis functions
    52 alpha electrons       52 beta electrons
       nuclear repulsion energy       900.7859719639 Hartrees.
 IExCor=20419 DFT=T Ex+Corr=CAM-B3LYP ExCW=0 ScaHFX=  1.000000
 ScaDFX=  1.000000  1.000000  1.000000  0.810000 ScalE2=  1.000000  1.000000
 IRadAn=      5 IRanWt=     -1 IRanGd=            0 ICorTp=0 IEmpDi=141
 HFx  wShort=  0.000000 wLong=  0.330000 cFull=  0.190000 cShort=  0.000000 cLong=  0.460000
 DFx  wShort=  0.000000 wLong=  0.330000 cFull=  0.190000 cShort=  0.000000 cLong=  0.460000
 NAtoms=   29 NActive=   29 NUniq=   29 SFac= 1.00D+00 NAtFMM=   60 NAOKFM=F Big=F
 Integral buffers will be    131072 words long.
 Raffenetti 2 integral format.
 Two-electron integral symmetry is turned on.
 R6Disp:  Grimme-D3(BJ) Dispersion energy=       -0.0262092189 Hartrees.
 Nuclear repulsion after empirical dispersion term =      900.7597627450 Hartrees.
 ------------------------------------------------------------------------------
 Polarizable Continuum Model (PCM)
 =================================
 Model                : PCM.
 Atomic radii         : UFF (Universal Force Field).
 Polarization charges : Total charges.
 Charge compensation  : None.
 Solution method      : On-the-fly selection.
 Cavity type          : Scaled VdW (van der Waals Surface) (Alpha=1.100).
 Cavity algorithm     : GePol (No added spheres)
                        Default sphere list used, NSphG=   29.
                        Lebedev-Laikov grids with approx.  5.0 points / Ang**2.
                        Smoothing algorithm: York/Karplus (Gamma=1.0000).
                        Polarization charges: spherical gaussians, with
                                              point-specific exponents (IZeta= 3).
                        Self-potential: point-specific (ISelfS= 7).
                        Self-field    : sphere-specific E.n sum rule (ISelfD= 2).
 Solvent              : TetraHydroFuran, Eps=   7.425700 Eps(inf)=   1.974025
 ------------------------------------------------------------------------------
 GePol: Number of generator spheres                  =      29
 GePol: Total number of spheres                      =      29
 GePol: Number of exposed spheres                    =      29 (100.00%)
 GePol: Number of points                             =    2094
 GePol: Average weight of points                     =       0.13
 GePol: Minimum weight of points                     =   0.11D-10
 GePol: Maximum weight of points                     =    0.20577
 GePol: Number of points with low weight             =     149
 GePol: Fraction of low-weight points (<1% of avg)   =       7.12%
 GePol: Cavity surface area                          =    268.725 Ang**2
 GePol: Cavity volume                                =    286.767 Ang**3
 Leave Link  301 at Fri Jan 23 22:55:31 2026, MaxMem=  2147483648 cpu:               0.6 elap:               0.0
 (Enter /data/home/wyx/g16/l302.exe)
 NPDir=0 NMtPBC=     1 NCelOv=     1 NCel=       1 NClECP=     1 NCelD=      1
         NCelK=      1 NCelE2=     1 NClLst=     1 CellRange=     0.0.
 One-electron integrals computed using PRISM.
 One-electron integral symmetry used in STVInt
 NBasis=   356 RedAO= T EigKep=  4.73D-05  NBF=   356
 NBsUse=   356 1.00D-06 EigRej= -1.00D+00 NBFU=   356
 Precomputing XC quadrature grid using
 IXCGrd= 4 IRadAn=           5 IRanWt=          -1 IRanGd=           0 AccXCQ= 0.00D+00.
 Generated NRdTot=       0 NPtTot=           0 NUsed=           0 NTot=          32
 NSgBfM=   366   366   366   366   366 MxSgAt=    29 MxSgA2=    29.
 Leave Link  302 at Fri Jan 23 22:55:32 2026, MaxMem=  2147483648 cpu:               3.1 elap:               0.2
 (Enter /data/home/wyx/g16/l303.exe)
 DipDrv:  MaxL=1.
 Leave Link  303 at Fri Jan 23 22:55:32 2026, MaxMem=  2147483648 cpu:               0.6 elap:               0.0
 (Enter /data/home/wyx/g16/l401.exe)
 Initial guess from the checkpoint file:  "DDL-S2-cLR-gs-15.chk"
 B after Tr=     0.000000    0.000000   -0.000000
         Rot=    1.000000   -0.000000    0.000000    0.000000 Ang=   0.00 deg.
 Guess basis will be translated and rotated to current coordinates.
 JPrj=2 DoOrth=T DoCkMO=T.
 Leave Link  401 at Fri Jan 23 22:55:32 2026, MaxMem=  2147483648 cpu:               2.5 elap:               0.2
 (Enter /data/home/wyx/g16/l502.exe)
 Integral symmetry usage will be decided dynamically.
 Closed shell SCF:
 Using DIIS extrapolation, IDIIS=  1040.
 NGot=  2147483648 LenX=  2147200095 LenY=  2147062754
 Requested convergence on RMS density matrix=1.00D-08 within 128 cycles.
 Requested convergence on MAX density matrix=1.00D-06.
 Requested convergence on             energy=1.00D-06.
 No special actions if energy rises.
 Fock matrices will be formed incrementally for  20 cycles.

 Cycle   1  Pass 1  IDiag  1:
 FoFJK:  IHMeth= 1 ICntrl=       0 DoSepK=T KAlg= 0 I1Cent=           0 FoldK=F
 IRaf=         1 NMat=       1 IRICut=       1 DoRegI=T DoRafI=F ISym2E= 0 IDoP0=0 IntGTp=1.
 FoFCou: FMM=F IPFlag=           0 FMFlag=      100000 FMFlg1=           0
         NFxFlg=           0 DoJE=T BraDBF=F KetDBF=F FulRan=T
         wScrn=  0.000000 ICntrl=       500 IOpCl=  0 I1Cent=           0 NGrid=           0
         NMat0=    1 NMatS0=      1 NMatT0=    0 NMatD0=    1 NMtDS0=    0 NMtDT0=    0
 Symmetry not used in FoFCou.
 Inv3:  Mode=1 IEnd=    13154508.
 Iteration    1 A*A^-1 deviation from unit magnitude is 2.66D-15 for    377.
 Iteration    1 A*A^-1 deviation from orthogonality  is 2.76D-15 for    576    404.
 Iteration    1 A^-1*A deviation from unit magnitude is 2.66D-15 for   2012.
 Iteration    1 A^-1*A deviation from orthogonality  is 1.85D-15 for   1499   1262.
 NEqPCM:  Using non-equilibrium solvation (IEInf=1, Eps=   7.4257, EpsInf=   1.9740)
 Inv3:  Mode=1 IEnd=    13154508.
 Iteration    1 A*A^-1 deviation from unit magnitude is 3.11D-15 for    126.
 Iteration    1 A*A^-1 deviation from orthogonality  is 1.75D-15 for   1351     16.
 Iteration    1 A^-1*A deviation from unit magnitude is 3.33D-15 for   1660.
 Iteration    1 A^-1*A deviation from orthogonality  is 2.00D-15 for   1805    612.
 E= -633.327602598780    
 DIIS: error= 4.27D-04 at cycle   1 NSaved=   1.
 NSaved= 1 IEnMin= 1 EnMin= -633.327602598780     IErMin= 1 ErrMin= 4.27D-04
 ErrMax= 4.27D-04  0.00D+00 EMaxC= 1.00D-01 BMatC= 4.32D-05 BMatP= 4.32D-05
 IDIUse=3 WtCom= 9.96D-01 WtEn= 4.27D-03
 Coeff-Com:  0.100D+01
 Coeff-En:   0.100D+01
 Coeff:      0.100D+01
 Gap=     0.240 Goal=   None    Shift=    0.000
 RMSDP=2.51D-04 MaxDP=1.16D-02              OVMax= 6.97D-03

 Cycle   2  Pass 1  IDiag  1:
 RMSU=  2.49D-04    CP:  1.00D+00
 E= -633.327681811093     Delta-E=       -0.000079212314 Rises=F Damp=F
 DIIS: error= 3.24D-04 at cycle   2 NSaved=   2.
 NSaved= 2 IEnMin= 2 EnMin= -633.327681811093     IErMin= 2 ErrMin= 3.24D-04
 ErrMax= 3.24D-04  0.00D+00 EMaxC= 1.00D-01 BMatC= 4.04D-05 BMatP= 4.32D-05
 IDIUse=3 WtCom= 9.97D-01 WtEn= 3.24D-03
 Coeff-Com:  0.488D+00 0.512D+00
 Coeff-En:   0.000D+00 0.100D+01
 Coeff:      0.486D+00 0.514D+00
 Gap=     0.240 Goal=   None    Shift=    0.000
 RMSDP=6.57D-05 MaxDP=3.25D-03 DE=-7.92D-05 OVMax= 1.70D-03

 Cycle   3  Pass 1  IDiag  1:
 RMSU=  6.16D-05    CP:  1.00D+00  9.77D-01
 E= -633.327712702495     Delta-E=       -0.000030891401 Rises=F Damp=F
 DIIS: error= 1.26D-04 at cycle   3 NSaved=   3.
 NSaved= 3 IEnMin= 3 EnMin= -633.327712702495     IErMin= 3 ErrMin= 1.26D-04
 ErrMax= 1.26D-04  0.00D+00 EMaxC= 1.00D-01 BMatC= 5.61D-06 BMatP= 4.04D-05
 IDIUse=3 WtCom= 9.99D-01 WtEn= 1.26D-03
 Coeff-Com:  0.607D-01 0.250D+00 0.689D+00
 Coeff-En:   0.000D+00 0.117D-01 0.988D+00
 Coeff:      0.607D-01 0.250D+00 0.689D+00
 Gap=     0.240 Goal=   None    Shift=    0.000
 RMSDP=1.80D-05 MaxDP=9.08D-04 DE=-3.09D-05 OVMax= 9.91D-04

 Cycle   4  Pass 1  IDiag  1:
 RMSU=  1.40D-05    CP:  1.00D+00  9.98D-01  1.16D+00
 E= -633.327717376430     Delta-E=       -0.000004673935 Rises=F Damp=F
 DIIS: error= 3.29D-05 at cycle   4 NSaved=   4.
 NSaved= 4 IEnMin= 4 EnMin= -633.327717376430     IErMin= 4 ErrMin= 3.29D-05
 ErrMax= 3.29D-05  0.00D+00 EMaxC= 1.00D-01 BMatC= 3.94D-07 BMatP= 5.61D-06
 IDIUse=1 WtCom= 1.00D+00 WtEn= 0.00D+00
 Coeff-Com: -0.145D-01 0.234D-01 0.206D+00 0.785D+00
 Coeff:     -0.145D-01 0.234D-01 0.206D+00 0.785D+00
 Gap=     0.240 Goal=   None    Shift=    0.000
 RMSDP=1.16D-05 MaxDP=5.65D-04 DE=-4.67D-06 OVMax= 5.87D-04

 Cycle   5  Pass 1  IDiag  1:
 RMSU=  6.44D-06    CP:  1.00D+00  1.01D+00  1.30D+00  1.08D+00
 E= -633.327717919079     Delta-E=       -0.000000542649 Rises=F Damp=F
 DIIS: error= 1.40D-05 at cycle   5 NSaved=   5.
 NSaved= 5 IEnMin= 5 EnMin= -633.327717919079     IErMin= 5 ErrMin= 1.40D-05
 ErrMax= 1.40D-05  0.00D+00 EMaxC= 1.00D-01 BMatC= 1.09D-07 BMatP= 3.94D-07
 IDIUse=1 WtCom= 1.00D+00 WtEn= 0.00D+00
 Coeff-Com: -0.133D-01-0.269D-01-0.116D-02 0.360D+00 0.682D+00
 Coeff:     -0.133D-01-0.269D-01-0.116D-02 0.360D+00 0.682D+00
 Gap=     0.240 Goal=   None    Shift=    0.000
 RMSDP=4.53D-06 MaxDP=1.89D-04 DE=-5.43D-07 OVMax= 2.11D-04

 Cycle   6  Pass 1  IDiag  1:
 RMSU=  2.09D-06    CP:  1.00D+00  1.01D+00  1.36D+00  1.23D+00  1.07D+00
 E= -633.327718076346     Delta-E=       -0.000000157267 Rises=F Damp=F
 DIIS: error= 8.68D-06 at cycle   6 NSaved=   6.
 NSaved= 6 IEnMin= 6 EnMin= -633.327718076346     IErMin= 6 ErrMin= 8.68D-06
 ErrMax= 8.68D-06  0.00D+00 EMaxC= 1.00D-01 BMatC= 1.12D-08 BMatP= 1.09D-07
 IDIUse=1 WtCom= 1.00D+00 WtEn= 0.00D+00
 Coeff-Com: -0.985D-03-0.144D-01-0.232D-01 0.702D-02 0.192D+00 0.840D+00
 Coeff:     -0.985D-03-0.144D-01-0.232D-01 0.702D-02 0.192D+00 0.840D+00
 Gap=     0.240 Goal=   None    Shift=    0.000
 RMSDP=2.00D-06 MaxDP=7.30D-05 DE=-1.57D-07 OVMax= 1.69D-04

 Cycle   7  Pass 1  IDiag  1:
 RMSU=  9.29D-07    CP:  1.00D+00  1.01D+00  1.38D+00  1.30D+00  1.18D+00
                    CP:  1.20D+00
 E= -633.327718105818     Delta-E=       -0.000000029472 Rises=F Damp=F
 DIIS: error= 3.47D-06 at cycle   7 NSaved=   7.
 NSaved= 7 IEnMin= 7 EnMin= -633.327718105818     IErMin= 7 ErrMin= 3.47D-06
 ErrMax= 3.47D-06  0.00D+00 EMaxC= 1.00D-01 BMatC= 5.19D-09 BMatP= 1.12D-08
 IDIUse=1 WtCom= 1.00D+00 WtEn= 0.00D+00
 Coeff-Com:  0.216D-02-0.342D-02-0.786D-02-0.662D-01-0.753D-01 0.427D+00
 Coeff-Com:  0.724D+00
 Coeff:      0.216D-02-0.342D-02-0.786D-02-0.662D-01-0.753D-01 0.427D+00
 Coeff:      0.724D+00
 Gap=     0.240 Goal=   None    Shift=    0.000
 RMSDP=9.25D-07 MaxDP=4.03D-05 DE=-2.95D-08 OVMax= 8.47D-05

 Cycle   8  Pass 1  IDiag  1:
 RMSU=  3.49D-07    CP:  1.00D+00  1.01D+00  1.38D+00  1.32D+00  1.23D+00
                    CP:  1.40D+00  1.10D+00
 E= -633.327718115071     Delta-E=       -0.000000009254 Rises=F Damp=F
 DIIS: error= 1.24D-06 at cycle   8 NSaved=   8.
 NSaved= 8 IEnMin= 8 EnMin= -633.327718115071     IErMin= 8 ErrMin= 1.24D-06
 ErrMax= 1.24D-06  0.00D+00 EMaxC= 1.00D-01 BMatC= 5.08D-10 BMatP= 5.19D-09
 IDIUse=1 WtCom= 1.00D+00 WtEn= 0.00D+00
 Coeff-Com:  0.931D-03 0.343D-03 0.198D-02-0.222D-01-0.705D-01 0.969D-02
 Coeff-Com:  0.235D+00 0.844D+00
 Coeff:      0.931D-03 0.343D-03 0.198D-02-0.222D-01-0.705D-01 0.969D-02
 Coeff:      0.235D+00 0.844D+00
 Gap=     0.240 Goal=   None    Shift=    0.000
 RMSDP=3.88D-07 MaxDP=1.25D-05 DE=-9.25D-09 OVMax= 3.46D-05

 Cycle   9  Pass 1  IDiag  1:
 RMSU=  1.15D-07    CP:  1.00D+00  1.01D+00  1.39D+00  1.33D+00  1.24D+00
                    CP:  1.51D+00  1.29D+00  1.16D+00
 E= -633.327718116239     Delta-E=       -0.000000001168 Rises=F Damp=F
 DIIS: error= 5.00D-07 at cycle   9 NSaved=   9.
 NSaved= 9 IEnMin= 9 EnMin= -633.327718116239     IErMin= 9 ErrMin= 5.00D-07
 ErrMax= 5.00D-07  0.00D+00 EMaxC= 1.00D-01 BMatC= 5.81D-11 BMatP= 5.08D-10
 IDIUse=1 WtCom= 1.00D+00 WtEn= 0.00D+00
 Coeff-Com:  0.392D-04 0.482D-03 0.184D-02 0.286D-02-0.169D-01-0.576D-01
 Coeff-Com: -0.814D-02 0.318D+00 0.759D+00
 Coeff:      0.392D-04 0.482D-03 0.184D-02 0.286D-02-0.169D-01-0.576D-01
 Coeff:     -0.814D-02 0.318D+00 0.759D+00
 Gap=     0.240 Goal=   None    Shift=    0.000
 RMSDP=1.16D-07 MaxDP=5.60D-06 DE=-1.17D-09 OVMax= 1.11D-05

 Cycle  10  Pass 1  IDiag  1:
 RMSU=  4.96D-08    CP:  1.00D+00  1.01D+00  1.39D+00  1.34D+00  1.23D+00
                    CP:  1.53D+00  1.35D+00  1.27D+00  9.95D-01
 E= -633.327718116362     Delta-E=       -0.000000000123 Rises=F Damp=F
 DIIS: error= 1.22D-07 at cycle  10 NSaved=  10.
 NSaved=10 IEnMin=10 EnMin= -633.327718116362     IErMin=10 ErrMin= 1.22D-07
 ErrMax= 1.22D-07  0.00D+00 EMaxC= 1.00D-01 BMatC= 1.04D-11 BMatP= 5.81D-11
 IDIUse=1 WtCom= 1.00D+00 WtEn= 0.00D+00
 Coeff-Com: -0.682D-04 0.241D-03 0.237D-03 0.326D-02 0.975D-03-0.226D-01
 Coeff-Com: -0.253D-01 0.105D-01 0.285D+00 0.747D+00
 Coeff:     -0.682D-04 0.241D-03 0.237D-03 0.326D-02 0.975D-03-0.226D-01
 Coeff:     -0.253D-01 0.105D-01 0.285D+00 0.747D+00
 Gap=     0.240 Goal=   None    Shift=    0.000
 RMSDP=3.95D-08 MaxDP=1.30D-06 DE=-1.23D-10 OVMax= 2.77D-06

 Cycle  11  Pass 1  IDiag  1:
 RMSU=  1.51D-08    CP:  1.00D+00  1.01D+00  1.39D+00  1.34D+00  1.23D+00
                    CP:  1.54D+00  1.37D+00  1.30D+00  1.13D+00  1.10D+00
 E= -633.327718116371     Delta-E=       -0.000000000009 Rises=F Damp=F
 DIIS: error= 8.40D-08 at cycle  11 NSaved=  11.
 NSaved=11 IEnMin=11 EnMin= -633.327718116371     IErMin=11 ErrMin= 8.40D-08
 ErrMax= 8.40D-08  0.00D+00 EMaxC= 1.00D-01 BMatC= 2.01D-12 BMatP= 1.04D-11
 IDIUse=1 WtCom= 1.00D+00 WtEn= 0.00D+00
 Coeff-Com: -0.437D-04 0.752D-04-0.232D-03 0.126D-02 0.337D-02-0.109D-02
 Coeff-Com: -0.891D-02-0.504D-01 0.193D-01 0.339D+00 0.698D+00
 Coeff:     -0.437D-04 0.752D-04-0.232D-03 0.126D-02 0.337D-02-0.109D-02
 Coeff:     -0.891D-02-0.504D-01 0.193D-01 0.339D+00 0.698D+00
 Gap=     0.240 Goal=   None    Shift=    0.000
 RMSDP=1.90D-08 MaxDP=1.33D-06 DE=-9.09D-12 OVMax= 8.76D-07

 Cycle  12  Pass 1  IDiag  1:
 RMSU=  8.01D-09    CP:  1.00D+00  1.01D+00  1.39D+00  1.34D+00  1.23D+00
                    CP:  1.54D+00  1.38D+00  1.31D+00  1.15D+00  1.25D+00
                    CP:  9.66D-01
 E= -633.327718116371     Delta-E=       -0.000000000000 Rises=F Damp=F
 DIIS: error= 2.84D-08 at cycle  12 NSaved=  12.
 NSaved=12 IEnMin=12 EnMin= -633.327718116371     IErMin=12 ErrMin= 2.84D-08
 ErrMax= 2.84D-08  0.00D+00 EMaxC= 1.00D-01 BMatC= 3.02D-13 BMatP= 2.01D-12
 IDIUse=1 WtCom= 1.00D+00 WtEn= 0.00D+00
 Coeff-Com: -0.104D-04 0.179D-04-0.134D-03 0.107D-03 0.128D-02 0.235D-02
 Coeff-Com:  0.271D-03-0.229D-01-0.254D-01 0.314D-01 0.316D+00 0.697D+00
 Coeff:     -0.104D-04 0.179D-04-0.134D-03 0.107D-03 0.128D-02 0.235D-02
 Coeff:      0.271D-03-0.229D-01-0.254D-01 0.314D-01 0.316D+00 0.697D+00
 Gap=     0.240 Goal=   None    Shift=    0.000
 RMSDP=4.76D-09 MaxDP=2.31D-07 DE=-1.14D-13 OVMax= 3.42D-07

 Error on total polarization charges =  0.00914
 SCF Done:  E(RCAM-B3LYP) =  -633.327718116     A.U. after   12 cycles
            NFock= 12  Conv=0.48D-08     -V/T= 2.0041
 KE= 6.307210677166D+02 PE=-3.277681447271D+03 EE= 1.112872898693D+03
 Leave Link  502 at Fri Jan 23 22:56:37 2026, MaxMem=  2147483648 cpu:            1006.3 elap:              64.7
 (Enter /data/home/wyx/g16/l601.exe)
 Copying SCF densities to generalized density rwf, IOpCl= 0 IROHF=0.

 **********************************************************************

            Population analysis using the SCF density.

 **********************************************************************

 Orbital symmetries:
       Occupied  (A) (A) (A) (A) (A) (A) (A) (A) (A) (A) (A) (A)
                 (A) (A) (A) (A) (A) (A) (A) (A) (A) (A) (A) (A)
                 (A) (A) (A) (A) (A) (A) (A) (A) (A) (A) (A) (A)
                 (A) (A) (A) (A) (A) (A) (A) (A) (A) (A) (A) (A)
                 (A) (A) (A) (A)
       Virtual   (A) (A) (A) (A) (A) (A) (A) (A) (A) (A) (A) (A)
                 (A) (A) (A) (A) (A) (A) (A) (A) (A) (A) (A) (A)
                 (A) (A) (A) (A) (A) (A) (A) (A) (A) (A) (A) (A)
                 (A) (A) (A) (A) (A) (A) (A) (A) (A) (A) (A) (A)
                 (A) (A) (A) (A) (A) (A) (A) (A) (A) (A) (A) (A)
                 (A) (A) (A) (A) (A) (A) (A) (A) (A) (A) (A) (A)
                 (A) (A) (A) (A) (A) (A) (A) (A) (A) (A) (A) (A)
                 (A) (A) (A) (A) (A) (A) (A) (A) (A) (A) (A) (A)
                 (A) (A) (A) (A) (A) (A) (A) (A) (A) (A) (A) (A)
                 (A) (A) (A) (A) (A) (A) (A) (A) (A) (A) (A) (A)
                 (A) (A) (A) (A) (A) (A) (A) (A) (A) (A) (A) (A)
                 (A) (A) (A) (A) (A) (A) (A) (A) (A) (A) (A) (A)
                 (A) (A) (A) (A) (A) (A) (A) (A) (A) (A) (A) (A)
                 (A) (A) (A) (A) (A) (A) (A) (A) (A) (A) (A) (A)
                 (A) (A) (A) (A) (A) (A) (A) (A) (A) (A) (A) (A)
                 (A) (A) (A) (A) (A) (A) (A) (A) (A) (A) (A) (A)
                 (A) (A) (A) (A) (A) (A) (A) (A) (A) (A) (A) (A)
                 (A) (A) (A) (A) (A) (A) (A) (A) (A) (A) (A) (A)
                 (A) (A) (A) (A) (A) (A) (A) (A) (A) (A) (A) (A)
                 (A) (A) (A) (A) (A) (A) (A) (A) (A) (A) (A) (A)
                 (A) (A) (A) (A) (A) (A) (A) (A) (A) (A) (A) (A)
                 (A) (A) (A) (A) (A) (A) (A) (A) (A) (A) (A) (A)
                 (A) (A) (A) (A) (A) (A) (A) (A) (A) (A) (A) (A)
                 (A) (A) (A) (A) (A) (A) (A) (A) (A) (A) (A) (A)
                 (A) (A) (A) (A) (A) (A) (A) (A) (A) (A) (A) (A)
                 (A) (A) (A) (A)
 The electronic state is 1-A.
 Alpha  occ. eigenvalues --  -19.18132 -19.17077 -14.44289 -10.33709 -10.32794
 Alpha  occ. eigenvalues --  -10.32267 -10.31463 -10.26257 -10.25308 -10.24949
 Alpha  occ. eigenvalues --  -10.24813 -10.24564 -10.24561 -10.23410  -1.12309
 Alpha  occ. eigenvalues --   -1.11259  -1.07670  -0.91415  -0.90354  -0.83901
 Alpha  occ. eigenvalues --   -0.82586  -0.81746  -0.78511  -0.74176  -0.71261
 Alpha  occ. eigenvalues --   -0.68660  -0.61615  -0.58315  -0.56918  -0.55321
 Alpha  occ. eigenvalues --   -0.54692  -0.53988  -0.52639  -0.51987  -0.50938
 Alpha  occ. eigenvalues --   -0.50103  -0.49492  -0.49181  -0.48696  -0.48230
 Alpha  occ. eigenvalues --   -0.46972  -0.45268  -0.45042  -0.43607  -0.43254
 Alpha  occ. eigenvalues --   -0.42550  -0.42136  -0.41824  -0.32981  -0.32395
 Alpha  occ. eigenvalues --   -0.30954  -0.26316
 Alpha virt. eigenvalues --   -0.02344   0.02432   0.06062   0.07984   0.08352
 Alpha virt. eigenvalues --    0.09866   0.10771   0.11883   0.12519   0.13351
 Alpha virt. eigenvalues --    0.14139   0.14714   0.15537   0.16043   0.16911
 Alpha virt. eigenvalues --    0.17488   0.17675   0.17933   0.18069   0.19204
 Alpha virt. eigenvalues --    0.19816   0.21971   0.22459   0.23276   0.23466
 Alpha virt. eigenvalues --    0.23740   0.24744   0.25383   0.25949   0.26404
 Alpha virt. eigenvalues --    0.26804   0.27191   0.28750   0.28851   0.30088
 Alpha virt. eigenvalues --    0.31428   0.31774   0.32667   0.33448   0.34114
 Alpha virt. eigenvalues --    0.35345   0.35750   0.36724   0.37899   0.38818
 Alpha virt. eigenvalues --    0.40073   0.40738   0.41578   0.42051   0.42557
 Alpha virt. eigenvalues --    0.43844   0.44147   0.45277   0.45788   0.46315
 Alpha virt. eigenvalues --    0.47111   0.47499   0.47921   0.48234   0.48843
 Alpha virt. eigenvalues --    0.49308   0.50288   0.50729   0.51253   0.51648
 Alpha virt. eigenvalues --    0.52889   0.53122   0.53301   0.54155   0.54295
 Alpha virt. eigenvalues --    0.54381   0.55767   0.56058   0.56552   0.57936
 Alpha virt. eigenvalues --    0.58546   0.58828   0.60397   0.61087   0.62184
 Alpha virt. eigenvalues --    0.63203   0.65512   0.65859   0.66564   0.67788
 Alpha virt. eigenvalues --    0.68496   0.70019   0.71082   0.72151   0.72905
 Alpha virt. eigenvalues --    0.73301   0.73642   0.74880   0.75903   0.77419
 Alpha virt. eigenvalues --    0.78048   0.79701   0.81816   0.83836   0.84181
 Alpha virt. eigenvalues --    0.89247   0.93359   0.98908   1.00627   1.24621
 Alpha virt. eigenvalues --    1.25622   1.26965   1.27596   1.29210   1.31453
 Alpha virt. eigenvalues --    1.32326   1.32920   1.33884   1.35059   1.35738
 Alpha virt. eigenvalues --    1.36548   1.37298   1.37894   1.39068   1.39713
 Alpha virt. eigenvalues --    1.39960   1.40017   1.41046   1.41545   1.41702
 Alpha virt. eigenvalues --    1.43040   1.43967   1.44687   1.45097   1.46847
 Alpha virt. eigenvalues --    1.47993   1.48757   1.49490   1.50374   1.50907
 Alpha virt. eigenvalues --    1.52187   1.52275   1.53926   1.54324   1.57488
 Alpha virt. eigenvalues --    1.58258   1.60429   1.60588   1.61113   1.62091
 Alpha virt. eigenvalues --    1.62471   1.63280   1.64104   1.65234   1.65623
 Alpha virt. eigenvalues --    1.66875   1.67251   1.67474   1.68186   1.68506
 Alpha virt. eigenvalues --    1.68736   1.69702   1.70442   1.72034   1.72058
 Alpha virt. eigenvalues --    1.73128   1.74961   1.75950   1.76846   1.78684
 Alpha virt. eigenvalues --    1.79669   1.82990   1.84110   1.85796   1.86459
 Alpha virt. eigenvalues --    1.86983   1.87427   1.88548   1.88800   1.90531
 Alpha virt. eigenvalues --    1.91392   1.94295   1.94974   1.97986   1.99565
 Alpha virt. eigenvalues --    2.00694   2.03550   2.04222   2.06127   2.09216
 Alpha virt. eigenvalues --    2.11141   2.12837   2.14197   2.16480   2.19214
 Alpha virt. eigenvalues --    2.20286   2.20994   2.21599   2.22405   2.26026
 Alpha virt. eigenvalues --    2.26789   2.27035   2.28728   2.30292   2.31030
 Alpha virt. eigenvalues --    2.32938   2.34491   2.35981   2.36238   2.37830
 Alpha virt. eigenvalues --    2.39240   2.40122   2.41386   2.43675   2.44561
 Alpha virt. eigenvalues --    2.45743   2.47513   2.50183   2.50270   2.51474
 Alpha virt. eigenvalues --    2.52694   2.53429   2.54965   2.56571   2.58600
 Alpha virt. eigenvalues --    2.58894   2.59922   2.60632   2.61309   2.62499
 Alpha virt. eigenvalues --    2.64305   2.65536   2.66754   2.67446   2.68996
 Alpha virt. eigenvalues --    2.70373   2.71941   2.72560   2.73680   2.74693
 Alpha virt. eigenvalues --    2.76051   2.76461   2.77173   2.77870   2.79454
 Alpha virt. eigenvalues --    2.80802   2.81251   2.82909   2.83532   2.84519
 Alpha virt. eigenvalues --    2.85456   2.85865   2.87522   2.90352   2.91784
 Alpha virt. eigenvalues --    2.97617   3.00104   3.00974   3.03560   3.09962
 Alpha virt. eigenvalues --    3.11818   3.15469   3.16140   3.16773   3.20201
 Alpha virt. eigenvalues --    3.20768   3.22011   3.24918   3.26345   3.26989
 Alpha virt. eigenvalues --    3.27888   3.29522   3.33351   3.34900   3.36382
 Alpha virt. eigenvalues --    3.36835   3.38454   3.39834   3.40170   3.41406
 Alpha virt. eigenvalues --    3.42486   3.44580   3.45217   3.46410   3.47935
 Alpha virt. eigenvalues --    3.48414   3.49002   3.54970   3.57954   3.59385
 Alpha virt. eigenvalues --    3.60486   3.89574   3.99079   4.34248   4.36469
 Alpha virt. eigenvalues --   21.63065  21.79044  22.08232  22.10767  22.11699
 Alpha virt. eigenvalues --   22.14423  22.15019  22.17976  22.20879  22.24742
 Alpha virt. eigenvalues --   22.30513  31.93023  43.62735  43.65503
          Condensed to atoms (all electrons):
               1          2          3          4          5          6
     1  O    7.934578   0.000000  -0.000242   0.000018   0.015679   0.018057
     2  O    0.000000   7.948022   0.000546   0.000039  -0.192711   0.000803
     3  N   -0.000242   0.000546   6.418891   0.375727  -0.117596   0.325975
     4  H    0.000018   0.000039   0.375727   0.412829   0.016669  -0.048656
     5  C    0.015679  -0.192711  -0.117596   0.016669   6.928981  -0.054070
     6  C    0.018057   0.000803   0.325975  -0.048656  -0.054070   5.667547
     7  C   -0.000473  -0.032499   0.367785  -0.041085   0.353010  -0.088300
     8  C   -0.000133   0.705792   0.005171  -0.000582  -0.185495   0.023287
     9  C   -0.028977   0.017866   0.016248  -0.000187  -0.460566  -0.139415
    10  H    0.016702  -0.000041  -0.001246   0.000020  -0.106347   0.025093
    11  H    0.003272   0.000081   0.003757   0.000002  -0.029367  -0.014587
    12  C   -0.216572  -0.002152  -0.094691   0.014720   0.134068  -0.203852
    13  C    0.710024  -0.000024   0.000166   0.000379   0.074644   0.191072
    14  C   -0.000004  -0.004606  -0.035826  -0.008193  -0.073335   0.009701
    15  H   -0.000000   0.004326   0.002176   0.001296   0.019139   0.006693
    16  H   -0.000000   0.000866   0.001784   0.000758  -0.012024  -0.000787
    17  H   -0.000000   0.000831  -0.002820   0.000919  -0.004643  -0.002087
    18  C   -0.000102  -0.105039  -0.000561   0.000021  -0.272965   0.000453
    19  H   -0.000003   0.009038   0.000001  -0.000001   0.021499   0.000034
    20  H    0.000075   0.003319   0.000117   0.000000   0.040158  -0.001041
    21  H    0.000022   0.001164   0.000010  -0.000000   0.005697   0.000255
    22  C   -0.106632   0.000000  -0.000110   0.000119   0.004122  -0.005625
    23  H    0.001158  -0.000000  -0.000043  -0.000017  -0.000091   0.011353
    24  H    0.004677  -0.000000  -0.000079  -0.000051  -0.000553  -0.035458
    25  H    0.007792   0.000000   0.000032  -0.000002  -0.000137  -0.001375
    26  C    0.000912   0.000002  -0.031467  -0.005403   0.000139   0.170374
    27  H   -0.000044  -0.000000  -0.002421   0.000411   0.000431  -0.035883
    28  H   -0.000253   0.000000   0.003426   0.000910   0.000014  -0.044145
    29  H    0.000026  -0.000000  -0.000378   0.000836  -0.000595  -0.050356
               7          8          9         10         11         12
     1  O   -0.000473  -0.000133  -0.028977   0.016702   0.003272  -0.216572
     2  O   -0.032499   0.705792   0.017866  -0.000041   0.000081  -0.002152
     3  N    0.367785   0.005171   0.016248  -0.001246   0.003757  -0.094691
     4  H   -0.041085  -0.000582  -0.000187   0.000020   0.000002   0.014720
     5  C    0.353010  -0.185495  -0.460566  -0.106347  -0.029367   0.134068
     6  C   -0.088300   0.023287  -0.139415   0.025093  -0.014587  -0.203852
     7  C    5.457517  -0.163865  -0.172530   0.018360  -0.003636  -0.001538
     8  C   -0.163865   5.282307   0.080589  -0.008765  -0.004815  -0.029201
     9  C   -0.172530   0.080589   6.248384   0.524410   0.391949   0.038911
    10  H    0.018360  -0.008765   0.524410   0.498149  -0.032637  -0.103844
    11  H   -0.003636  -0.004815   0.391949  -0.032637   0.552565  -0.023563
    12  C   -0.001538  -0.029201   0.038911  -0.103844  -0.023563   7.282004
    13  C    0.009689  -0.004682  -0.260426  -0.001948   0.001028  -0.382452
    14  C    0.252147  -0.031289   0.011820   0.000484  -0.001308  -0.005480
    15  H   -0.076829   0.005466  -0.000091  -0.000003   0.000070  -0.001223
    16  H   -0.026012  -0.007242  -0.000742  -0.000049   0.000187  -0.000056
    17  H   -0.022684  -0.002933   0.000689   0.000050  -0.000068   0.000964
    18  C    0.003469   0.302108   0.003057   0.007243  -0.008289  -0.004589
    19  H    0.000097  -0.049028   0.000071   0.000497  -0.000043  -0.000192
    20  H    0.000068  -0.061293  -0.009080  -0.004495   0.001772   0.007000
    21  H    0.001428  -0.026813  -0.009589  -0.002493   0.001058  -0.003958
    22  C   -0.000078  -0.000041   0.002184   0.001349   0.001422  -0.257965
    23  H    0.000040   0.000003  -0.001938  -0.000115   0.000142  -0.011484
    24  H    0.000010  -0.000011   0.003400  -0.000082  -0.000117   0.067489
    25  H    0.000007   0.000003   0.000243  -0.000146  -0.000031   0.022646
    26  C    0.001566   0.000390   0.018960   0.000007  -0.000703  -0.073576
    27  H   -0.000762  -0.000007  -0.000149   0.000039  -0.000022  -0.020413
    28  H   -0.000792   0.000002  -0.000852   0.000004  -0.000108  -0.008692
    29  H    0.003818  -0.000006  -0.000511  -0.000010   0.000113   0.024666
              13         14         15         16         17         18
     1  O    0.710024  -0.000004  -0.000000  -0.000000  -0.000000  -0.000102
     2  O   -0.000024  -0.004606   0.004326   0.000866   0.000831  -0.105039
     3  N    0.000166  -0.035826   0.002176   0.001784  -0.002820  -0.000561
     4  H    0.000379  -0.008193   0.001296   0.000758   0.000919   0.000021
     5  C    0.074644  -0.073335   0.019139  -0.012024  -0.004643  -0.272965
     6  C    0.191072   0.009701   0.006693  -0.000787  -0.002087   0.000453
     7  C    0.009689   0.252147  -0.076829  -0.026012  -0.022684   0.003469
     8  C   -0.004682  -0.031289   0.005466  -0.007242  -0.002933   0.302108
     9  C   -0.260426   0.011820  -0.000091  -0.000742   0.000689   0.003057
    10  H   -0.001948   0.000484  -0.000003  -0.000049   0.000050   0.007243
    11  H    0.001028  -0.001308   0.000070   0.000187  -0.000068  -0.008289
    12  C   -0.382452  -0.005480  -0.001223  -0.000056   0.000964  -0.004589
    13  C    5.423958  -0.000092  -0.000014  -0.000001  -0.000022   0.000557
    14  C   -0.000092   5.052800   0.385284   0.426243   0.409410   0.002189
    15  H   -0.000014   0.385284   0.588448  -0.029001  -0.027759   0.000311
    16  H   -0.000001   0.426243  -0.029001   0.501744  -0.023932  -0.000334
    17  H   -0.000022   0.409410  -0.027759  -0.023932   0.507671  -0.000160
    18  C    0.000557   0.002189   0.000311  -0.000334  -0.000160   5.361798
    19  H   -0.000016   0.000011  -0.000005   0.000032  -0.000015   0.392549
    20  H    0.000428   0.000025  -0.000017  -0.000037   0.000008   0.380608
    21  H   -0.000035  -0.000297  -0.000007   0.000030  -0.000006   0.395939
    22  C    0.279528  -0.000024   0.000002  -0.000000   0.000000   0.000027
    23  H   -0.021457  -0.000000   0.000000  -0.000000   0.000000  -0.000002
    24  H   -0.091811  -0.000002   0.000000   0.000000   0.000000   0.000003
    25  H   -0.040451   0.000000   0.000000   0.000000  -0.000000  -0.000001
    26  C   -0.052506   0.001469   0.000058   0.000059  -0.000187   0.000026
    27  H    0.006256  -0.000107   0.000002   0.000004  -0.000013  -0.000001
    28  H   -0.005064   0.000097  -0.000013  -0.000001   0.000001  -0.000000
    29  H   -0.000626  -0.000286   0.000127  -0.000005   0.000003   0.000000
              19         20         21         22         23         24
     1  O   -0.000003   0.000075   0.000022  -0.106632   0.001158   0.004677
     2  O    0.009038   0.003319   0.001164   0.000000  -0.000000  -0.000000
     3  N    0.000001   0.000117   0.000010  -0.000110  -0.000043  -0.000079
     4  H   -0.000001   0.000000  -0.000000   0.000119  -0.000017  -0.000051
     5  C    0.021499   0.040158   0.005697   0.004122  -0.000091  -0.000553
     6  C    0.000034  -0.001041   0.000255  -0.005625   0.011353  -0.035458
     7  C    0.000097   0.000068   0.001428  -0.000078   0.000040   0.000010
     8  C   -0.049028  -0.061293  -0.026813  -0.000041   0.000003  -0.000011
     9  C    0.000071  -0.009080  -0.009589   0.002184  -0.001938   0.003400
    10  H    0.000497  -0.004495  -0.002493   0.001349  -0.000115  -0.000082
    11  H   -0.000043   0.001772   0.001058   0.001422   0.000142  -0.000117
    12  C   -0.000192   0.007000  -0.003958  -0.257965  -0.011484   0.067489
    13  C   -0.000016   0.000428  -0.000035   0.279528  -0.021457  -0.091811
    14  C    0.000011   0.000025  -0.000297  -0.000024  -0.000000  -0.000002
    15  H   -0.000005  -0.000017  -0.000007   0.000002   0.000000   0.000000
    16  H    0.000032  -0.000037   0.000030  -0.000000  -0.000000   0.000000
    17  H   -0.000015   0.000008  -0.000006   0.000000   0.000000   0.000000
    18  C    0.392549   0.380608   0.395939   0.000027  -0.000002   0.000003
    19  H    0.494627  -0.021083  -0.009054  -0.000000   0.000000   0.000000
    20  H   -0.021083   0.541303  -0.027478   0.000014  -0.000000  -0.000000
    21  H   -0.009054  -0.027478   0.507405  -0.000014   0.000000  -0.000000
    22  C   -0.000000   0.000014  -0.000014   5.424016   0.399866   0.399369
    23  H    0.000000  -0.000000   0.000000   0.399866   0.495382  -0.027417
    24  H    0.000000  -0.000000  -0.000000   0.399369  -0.027417   0.541009
    25  H   -0.000000  -0.000000  -0.000000   0.385362  -0.007539  -0.021714
    26  C    0.000000  -0.000015   0.000006  -0.027400  -0.015605   0.015629
    27  H   -0.000000  -0.000000   0.000000  -0.010719   0.001129  -0.001365
    28  H   -0.000000  -0.000000  -0.000000   0.008488  -0.000473  -0.010660
    29  H    0.000000   0.000000  -0.000000   0.002006   0.000237   0.000740
              25         26         27         28         29
     1  O    0.007792   0.000912  -0.000044  -0.000253   0.000026
     2  O    0.000000   0.000002  -0.000000   0.000000  -0.000000
     3  N    0.000032  -0.031467  -0.002421   0.003426  -0.000378
     4  H   -0.000002  -0.005403   0.000411   0.000910   0.000836
     5  C   -0.000137   0.000139   0.000431   0.000014  -0.000595
     6  C   -0.001375   0.170374  -0.035883  -0.044145  -0.050356
     7  C    0.000007   0.001566  -0.000762  -0.000792   0.003818
     8  C    0.000003   0.000390  -0.000007   0.000002  -0.000006
     9  C    0.000243   0.018960  -0.000149  -0.000852  -0.000511
    10  H   -0.000146   0.000007   0.000039   0.000004  -0.000010
    11  H   -0.000031  -0.000703  -0.000022  -0.000108   0.000113
    12  C    0.022646  -0.073576  -0.020413  -0.008692   0.024666
    13  C   -0.040451  -0.052506   0.006256  -0.005064  -0.000626
    14  C    0.000000   0.001469  -0.000107   0.000097  -0.000286
    15  H    0.000000   0.000058   0.000002  -0.000013   0.000127
    16  H    0.000000   0.000059   0.000004  -0.000001  -0.000005
    17  H   -0.000000  -0.000187  -0.000013   0.000001   0.000003
    18  C   -0.000001   0.000026  -0.000001  -0.000000   0.000000
    19  H   -0.000000   0.000000  -0.000000  -0.000000   0.000000
    20  H   -0.000000  -0.000015  -0.000000  -0.000000   0.000000
    21  H   -0.000000   0.000006   0.000000  -0.000000  -0.000000
    22  C    0.385362  -0.027400  -0.010719   0.008488   0.002006
    23  H   -0.007539  -0.015605   0.001129  -0.000473   0.000237
    24  H   -0.021714   0.015629  -0.001365  -0.010660   0.000740
    25  H    0.490527   0.001806   0.000095   0.000902  -0.000043
    26  C    0.001806   5.258852   0.430113   0.426944   0.390202
    27  H    0.000095   0.430113   0.481053  -0.024257  -0.019597
    28  H    0.000902   0.426944  -0.024257   0.510261  -0.027204
    29  H   -0.000043   0.390202  -0.019597  -0.027204   0.523785
 Mulliken charges:
               1
     1  O   -0.359556
     2  O   -0.355625
     3  N   -0.234334
     4  H    0.278503
     5  C   -0.103758
     6  C    0.274939
     7  C    0.162072
     8  C    0.171082
     9  C   -0.273726
    10  H    0.169814
    11  H    0.161873
    12  C   -0.146973
    13  C    0.163897
    14  C   -0.390832
    15  H    0.121562
    16  H    0.168517
    17  H    0.166783
    18  C   -0.458315
    19  H    0.160983
    20  H    0.149645
    21  H    0.166731
    22  C   -0.499268
    23  H    0.176872
    24  H    0.156994
    25  H    0.162025
    26  C   -0.510653
    27  H    0.196226
    28  H    0.171464
    29  H    0.153058
 Sum of Mulliken charges =  -0.00000
 Mulliken charges with hydrogens summed into heavy atoms:
               1
     1  O   -0.359556
     2  O   -0.355625
     3  N    0.044169
     5  C   -0.103758
     6  C    0.274939
     7  C    0.162072
     8  C    0.171082
     9  C    0.057961
    12  C   -0.146973
    13  C    0.163897
    14  C    0.066030
    18  C    0.019044
    22  C   -0.003377
    26  C    0.010095
 Electronic spatial extent (au):  <R**2>=           3182.0760
 Charge=             -0.0000 electrons
 Dipole moment (field-independent basis, Debye):
    X=              3.4582    Y=              6.7987    Z=             -0.2417  Tot=              7.6315
 Quadrupole moment (field-independent basis, Debye-Ang):
   XX=            -95.7999   YY=            -78.9740   ZZ=            -85.0419
   XY=             12.3643   XZ=              5.3604   YZ=             -1.4587
 Traceless Quadrupole moment (field-independent basis, Debye-Ang):
   XX=             -9.1946   YY=              7.6313   ZZ=              1.5633
   XY=             12.3643   XZ=              5.3604   YZ=             -1.4587
 Octapole moment (field-independent basis, Debye-Ang**2):
  XXX=             97.8051  YYY=             59.6371  ZZZ=              2.2056  XYY=            -34.1152
  XXY=             27.4930  XXZ=             -9.4839  XZZ=              2.0665  YZZ=             -1.6276
  YYZ=              3.3427  XYZ=             -5.1065
 Hexadecapole moment (field-independent basis, Debye-Ang**3):
 XXXX=          -2982.9250 YYYY=          -1278.2218 ZZZZ=           -159.9411 XXXY=             37.8976
 XXXZ=             61.2589 YYYX=             85.5159 YYYZ=            -21.3861 ZZZX=             -2.9243
 ZZZY=              5.9629 XXYY=           -686.8468 XXZZ=           -485.4007 YYZZ=           -243.2682
 XXYZ=             -6.9829 YYXZ=              6.1522 ZZXY=             -1.5851
 N-N= 9.007597627450D+02 E-N=-3.277681448696D+03  KE= 6.307210677166D+02
 No NMR shielding tensors so no spin-rotation constants.
 Leave Link  601 at Fri Jan 23 22:56:37 2026, MaxMem=  2147483648 cpu:               1.8 elap:               0.1
 (Enter /data/home/wyx/g16/l9999.exe)
 1\1\GINC-CN012\SP\RCAM-B3LYP\TZVP\C11H15N1O2\WYX\23-Jan-2026\0\\#p CAM
 -B3LYP TZVP em=gd3bj scrf=(Solvent=TetraHydroFuran,NonEquilibrium=Read
 ) Geom=Check Guess=Read\\Title Card Required\\0,1\O,0,2.834769,-1.5638
 86,0.161385\O,0,-3.418074,-1.618637,0.094504\N,0,-0.632321,1.509615,-0
 .381216\H,0,-0.940976,2.46667,-0.435865\C,0,-1.236512,-0.757182,-0.225
 422\C,0,0.703177,1.296323,-0.113137\C,0,-1.608964,0.543817,-0.297362\C
 ,0,-2.224821,-1.826886,-0.092604\C,0,0.222077,-1.114544,-0.368954\H,0,
 0.47334,-1.962353,0.265024\H,0,0.434632,-1.459386,-1.389975\C,0,1.1517
 79,0.022178,-0.018677\C,0,2.512064,-0.393041,0.330576\C,0,-3.000627,1.
 08645,-0.292964\H,0,-3.003224,2.136355,-0.584761\H,0,-3.643933,0.52571
 6,-0.963633\H,0,-3.44185,1.001786,0.699085\C,0,-1.731415,-3.248389,-0.
 190817\H,0,-2.583883,-3.918704,-0.249238\H,0,-1.087711,-3.394883,-1.05
 7463\H,0,-1.14225,-3.505898,0.690741\C,0,3.528726,0.544907,0.935674\H,
 0,4.044357,1.101933,0.151503\H,0,3.091794,1.258574,1.629308\H,0,4.2683
 39,-0.060731,1.453982\C,0,1.468319,2.575425,0.034916\H,0,1.502689,2.89
 2012,1.078205\H,0,2.483846,2.496586,-0.332097\H,0,0.976655,3.366175,-0
 .530715\\Version=ES64L-G16RevA.03\State=1-A\HF=-633.3277181\RMSD=4.758
 e-09\Dipole=0.3950929,2.9736345,-0.1273143\Quadrupole=-12.005087,10.10
 04029,1.9046842,3.1971386,2.5258006,0.4620691\PG=C01 [X(C11H15N1O2)]\\
 @


 IN SO FAR AS QUANTUM MECHANICS IS CORRECT, CHEMICAL 
 QUESTIONS ARE PROBLEMS IN APPLIED MATHEMATICS.

                    -- EYRING, WALTER, & KIMBALL, 1944
 Job cpu time:       0 days  0 hours 16 minutes 57.1 seconds.
 Elapsed time:       0 days  0 hours  1 minutes  5.6 seconds.
 File lengths (MBytes):  RWF=    337 Int=      0 D2E=      0 Chk=     67 Scr=      1
 Normal termination of Gaussian 16 at Fri Jan 23 22:56:38 2026.
