 Entering Gaussian System, Link 0=g16
 Input=DDL-S2-cLR-3.gjf
 Output=DDL-S2-cLR-3.log
 Initial command:
 /data/home/wyx/g16/l1.exe "/scr/tmp/wyx/13106/Gau-1971870.inp" -scrdir="/scr/tmp/wyx/13106/"
 Entering Link 1 = /data/home/wyx/g16/l1.exe PID=   1971871.
  
 Copyright (c) 1988,1990,1992,1993,1995,1998,2003,2009,2016,
            Gaussian, Inc.  All Rights Reserved.
  
 This is part of the Gaussian(R) 16 program.  It is based on
 the Gaussian(R) 09 system (copyright 2009, Gaussian, Inc.),
 the Gaussian(R) 03 system (copyright 2003, Gaussian, Inc.),
 the Gaussian(R) 98 system (copyright 1998, Gaussian, Inc.),
 the Gaussian(R) 94 system (copyright 1995, Gaussian, Inc.),
 the Gaussian 92(TM) system (copyright 1992, Gaussian, Inc.),
 the Gaussian 90(TM) system (copyright 1990, Gaussian, Inc.),
 the Gaussian 88(TM) system (copyright 1988, Gaussian, Inc.),
 the Gaussian 86(TM) system (copyright 1986, Carnegie Mellon
 University), and the Gaussian 82(TM) system (copyright 1983,
 Carnegie Mellon University). Gaussian is a federally registered
 trademark of Gaussian, Inc.
  
 This software contains proprietary and confidential information,
 including trade secrets, belonging to Gaussian, Inc.
  
 This software is provided under written license and may be
 used, copied, transmitted, or stored only in accord with that
 written license.
  
 The following legend is applicable only to US Government
 contracts under FAR:
  
                    RESTRICTED RIGHTS LEGEND
  
 Use, reproduction and disclosure by the US Government is
 subject to restrictions as set forth in subparagraphs (a)
 and (c) of the Commercial Computer Software - Restricted
 Rights clause in FAR 52.227-19.
  
 Gaussian, Inc.
 340 Quinnipiac St., Bldg. 40, Wallingford CT 06492
  
  
 ---------------------------------------------------------------
 Warning -- This program may not be used in any manner that
 competes with the business of Gaussian, Inc. or will provide
 assistance to any competitor of Gaussian, Inc.  The licensee
 of this program is prohibited from giving any competitor of
 Gaussian, Inc. access to this program.  By using this program,
 the user acknowledges that Gaussian, Inc. is engaged in the
 business of creating and licensing software in the field of
 computational chemistry and represents and warrants to the
 licensee that it is not a competitor of Gaussian, Inc. and that
 it will not use this program in any manner prohibited above.
 ---------------------------------------------------------------
  

 Cite this work as:
 Gaussian 16, Revision A.03,
 M. J. Frisch, G. W. Trucks, H. B. Schlegel, G. E. Scuseria, 
 M. A. Robb, J. R. Cheeseman, G. Scalmani, V. Barone, 
 G. A. Petersson, H. Nakatsuji, X. Li, M. Caricato, A. V. Marenich, 
 J. Bloino, B. G. Janesko, R. Gomperts, B. Mennucci, H. P. Hratchian, 
 J. V. Ortiz, A. F. Izmaylov, J. L. Sonnenberg, D. Williams-Young, 
 F. Ding, F. Lipparini, F. Egidi, J. Goings, B. Peng, A. Petrone, 
 T. Henderson, D. Ranasinghe, V. G. Zakrzewski, J. Gao, N. Rega, 
 G. Zheng, W. Liang, M. Hada, M. Ehara, K. Toyota, R. Fukuda, 
 J. Hasegawa, M. Ishida, T. Nakajima, Y. Honda, O. Kitao, H. Nakai, 
 T. Vreven, K. Throssell, J. A. Montgomery, Jr., J. E. Peralta, 
 F. Ogliaro, M. J. Bearpark, J. J. Heyd, E. N. Brothers, K. N. Kudin, 
 V. N. Staroverov, T. A. Keith, R. Kobayashi, J. Normand, 
 K. Raghavachari, A. P. Rendell, J. C. Burant, S. S. Iyengar, 
 J. Tomasi, M. Cossi, J. M. Millam, M. Klene, C. Adamo, R. Cammi, 
 J. W. Ochterski, R. L. Martin, K. Morokuma, O. Farkas, 
 J. B. Foresman, and D. J. Fox, Gaussian, Inc., Wallingford CT, 2016.
 
 ******************************************
 Gaussian 16:  ES64L-G16RevA.03 25-Dec-2016
                23-Jan-2026 
 ******************************************
 %nprocshared=16
 Will use up to   16 processors via shared memory.
 %mem=16GB
 %oldchk=DDL-LR-3.chk
 %chk=DDL-S2-cLR-3.chk
 Copying data from "DDL-LR-3.chk" to current chk file "DDL-S2-cLR-3.chk"
 IOpt=  2 FromEx=T IUOpen= 4 IOptOp= 5 NList=   0 IFRang= 0 IUIn= 4 IUOut= 2.
 ----------------------------------------------------------------------
 #p CAM-B3LYP TZVP em=gd3bj td(nstates=6,root=2) scrf=(Solvent=TetraHyd
 roFuran,CorrectedLR,NonEquilibrium=Save) Geom=Check Guess=Read
 ----------------------------------------------------------------------
 1/29=2,30=1,38=1,172=1/1;
 2/12=2,40=1/2;
 3/5=19,7=101,11=9,14=-4,25=1,30=1,70=9002201,71=1,72=20,74=-40,116=-2,124=41/1,2,3,8;
 4/5=1/1;
 5/5=2,38=6,53=20/2;
 8/6=1,10=1,107=2,108=6/1;
 9/8=2,15=1,41=6,42=1,70=2,73=22/14;
 10/5=4,13=10,28=2,74=20/2;
 6/7=2,8=2,9=2,10=2,22=-1/1;
 99/5=1,9=1/99;
 Leave Link    1 at Fri Jan 23 17:38:48 2026, MaxMem=  2147483648 cpu:               0.9 elap:               0.1
 (Enter /data/home/wyx/g16/l101.exe)
 -------------------
 Title Card Required
 -------------------
 Structure from the checkpoint file:  "DDL-S2-cLR-3.chk"
 Charge =  0 Multiplicity = 1
 Z-Matrix found in chk file.
 O,0,2.839691,-1.573384,0.037849
 O,0,-3.429203,-1.648793,-0.14129
 N,0,-0.664952,1.517747,-0.185688
 H,0,-0.976814,2.478348,-0.235218
 C,0,-1.248428,-0.762655,-0.201081
 C,0,0.678995,1.334892,-0.023667
 C,0,-1.63861,0.578642,-0.238255
 C,0,-2.21189,-1.846455,-0.182765
 C,0,0.194308,-1.082668,-0.190208
 H,0,0.406434,-1.888397,0.521548
 H,0,0.474092,-1.562221,-1.146582
 C,0,1.147434,0.025849,0.041424
 C,0,2.517919,-0.401916,0.269951
 C,0,-3.027428,1.105125,-0.349093
 H,0,-3.024235,2.189528,-0.454009
 H,0,-3.543492,0.675929,-1.203654
 H,0,-3.619066,0.845626,0.525216
 C,0,-1.708565,-3.268057,-0.185138
 H,0,-2.516063,-3.926818,-0.488508
 H,0,-0.858139,-3.42479,-0.842902
 H,0,-1.398197,-3.560573,0.818638
 C,0,3.566365,0.527674,0.831886
 H,0,4.0722,1.06698,0.028207
 H,0,3.163894,1.257182,1.529871
 H,0,4.31009,-0.083283,1.33901
 C,0,1.469592,2.600083,0.025453
 H,0,1.716045,2.895922,1.046065
 H,0,2.400273,2.510419,-0.526187
 H,0,0.90775,3.420064,-0.420871
 Recover connectivity data from disk.
 ITRead=  0  0  0  0  0  0  0  0  0  0  0  0  0  0  0  0  0  0  0  0
 ITRead=  0  0  0  0  0  0  0  0  0
 MicOpt= -1 -1 -1 -1 -1 -1 -1 -1 -1 -1 -1 -1 -1 -1 -1 -1 -1 -1 -1 -1
 MicOpt= -1 -1 -1 -1 -1 -1 -1 -1 -1
 NAtoms=     29 NQM=       29 NQMF=       0 NMMI=      0 NMMIF=      0
                NMic=       0 NMicF=      0.
                    Isotopes and Nuclear Properties:
 (Nuclear quadrupole moments (NQMom) in fm**2, nuclear magnetic moments (NMagM)
  in nuclear magnetons)

  Atom         1           2           3           4           5           6           7           8           9          10
 IAtWgt=          16          16          14           1          12          12          12          12          12           1
 AtmWgt=  15.9949146  15.9949146  14.0030740   1.0078250  12.0000000  12.0000000  12.0000000  12.0000000  12.0000000   1.0078250
 NucSpn=           0           0           2           1           0           0           0           0           0           1
 AtZEff=   5.6000000   5.6000000   4.5500000   1.0000000   3.6000000   3.6000000   3.6000000   3.6000000   3.6000000   1.0000000
 NQMom=    0.0000000   0.0000000   2.0440000   0.0000000   0.0000000   0.0000000   0.0000000   0.0000000   0.0000000   0.0000000
 NMagM=    0.0000000   0.0000000   0.4037610   2.7928460   0.0000000   0.0000000   0.0000000   0.0000000   0.0000000   2.7928460
 AtZNuc=   8.0000000   8.0000000   7.0000000   1.0000000   6.0000000   6.0000000   6.0000000   6.0000000   6.0000000   1.0000000

  Atom        11          12          13          14          15          16          17          18          19          20
 IAtWgt=           1          12          12          12           1           1           1          12           1           1
 AtmWgt=   1.0078250  12.0000000  12.0000000  12.0000000   1.0078250   1.0078250   1.0078250  12.0000000   1.0078250   1.0078250
 NucSpn=           1           0           0           0           1           1           1           0           1           1
 AtZEff=   1.0000000   3.6000000   3.6000000   3.6000000   1.0000000   1.0000000   1.0000000   3.6000000   1.0000000   1.0000000
 NQMom=    0.0000000   0.0000000   0.0000000   0.0000000   0.0000000   0.0000000   0.0000000   0.0000000   0.0000000   0.0000000
 NMagM=    2.7928460   0.0000000   0.0000000   0.0000000   2.7928460   2.7928460   2.7928460   0.0000000   2.7928460   2.7928460
 AtZNuc=   1.0000000   6.0000000   6.0000000   6.0000000   1.0000000   1.0000000   1.0000000   6.0000000   1.0000000   1.0000000

  Atom        21          22          23          24          25          26          27          28          29
 IAtWgt=           1          12           1           1           1          12           1           1           1
 AtmWgt=   1.0078250  12.0000000   1.0078250   1.0078250   1.0078250  12.0000000   1.0078250   1.0078250   1.0078250
 NucSpn=           1           0           1           1           1           0           1           1           1
 AtZEff=   1.0000000   3.6000000   1.0000000   1.0000000   1.0000000   3.6000000   1.0000000   1.0000000   1.0000000
 NQMom=    0.0000000   0.0000000   0.0000000   0.0000000   0.0000000   0.0000000   0.0000000   0.0000000   0.0000000
 NMagM=    2.7928460   0.0000000   2.7928460   2.7928460   2.7928460   0.0000000   2.7928460   2.7928460   2.7928460
 AtZNuc=   1.0000000   6.0000000   1.0000000   1.0000000   1.0000000   6.0000000   1.0000000   1.0000000   1.0000000
 Leave Link  101 at Fri Jan 23 17:38:51 2026, MaxMem=  2147483648 cpu:               0.9 elap:               0.1
 (Enter /data/home/wyx/g16/l202.exe)
                          Input orientation:                          
 ---------------------------------------------------------------------
 Center     Atomic      Atomic             Coordinates (Angstroms)
 Number     Number       Type             X           Y           Z
 ---------------------------------------------------------------------
      1          8           0        2.839691   -1.573384    0.037849
      2          8           0       -3.429203   -1.648793   -0.141290
      3          7           0       -0.664952    1.517747   -0.185688
      4          1           0       -0.976814    2.478348   -0.235218
      5          6           0       -1.248428   -0.762655   -0.201081
      6          6           0        0.678995    1.334892   -0.023667
      7          6           0       -1.638610    0.578642   -0.238255
      8          6           0       -2.211890   -1.846455   -0.182765
      9          6           0        0.194308   -1.082668   -0.190208
     10          1           0        0.406434   -1.888397    0.521548
     11          1           0        0.474092   -1.562221   -1.146582
     12          6           0        1.147434    0.025849    0.041424
     13          6           0        2.517919   -0.401916    0.269951
     14          6           0       -3.027428    1.105125   -0.349093
     15          1           0       -3.024235    2.189528   -0.454009
     16          1           0       -3.543492    0.675929   -1.203654
     17          1           0       -3.619066    0.845626    0.525216
     18          6           0       -1.708565   -3.268057   -0.185138
     19          1           0       -2.516063   -3.926818   -0.488508
     20          1           0       -0.858139   -3.424790   -0.842902
     21          1           0       -1.398197   -3.560573    0.818638
     22          6           0        3.566365    0.527674    0.831886
     23          1           0        4.072200    1.066980    0.028207
     24          1           0        3.163894    1.257182    1.529871
     25          1           0        4.310090   -0.083283    1.339010
     26          6           0        1.469592    2.600083    0.025453
     27          1           0        1.716045    2.895922    1.046065
     28          1           0        2.400273    2.510419   -0.526187
     29          1           0        0.907750    3.420064   -0.420871
 ---------------------------------------------------------------------
                    Distance matrix (angstroms):
                    1          2          3          4          5
     1  O    0.000000
     2  O    6.271906   0.000000
     3  N    4.678417   4.203574   0.000000
     4  H    5.572864   4.801700   1.011170   0.000000
     5  C    4.174576   2.354696   2.353915   3.252544   0.000000
     6  C    3.623598   5.078730   1.365972   2.023351   2.854144
     7  C    4.976206   2.859562   1.353769   2.011682   1.397391
     8  C    5.063764   1.233954   3.702821   4.498009   1.450247
     9  C    2.700160   3.667795   2.738705   3.748918   1.477841
    10  H    2.500787   3.899856   3.640037   4.642686   2.127923
    11  H    2.645574   4.031602   3.421541   4.388839   2.121404
    12  C    2.328367   4.876824   2.358407   3.256334   2.533910
    13  C    1.236829   6.090327   3.744780   4.556783   3.812791
    14  C    6.461209   2.790819   2.403799   2.470572   2.583670
    15  H    6.984773   3.872273   2.467692   2.079235   3.454395
    16  H    6.880826   2.558517   3.167160   3.282441   2.888251
    17  H    6.914093   2.588900   3.111900   3.197739   2.955334
    18  C    4.858834   2.363162   4.898270   5.793025   2.547355
    19  H    5.873653   2.478666   5.758611   6.592389   3.420737
    20  H    4.228164   3.202623   4.989782   5.935520   2.766084
    21  H    4.745339   2.949805   5.228351   6.144652   2.981711
    22  C    2.360719   7.390673   4.463154   5.058094   5.090599
    23  H    2.913879   7.979674   4.763355   5.249180   5.631094
    24  H    3.216107   7.396377   4.203701   4.663931   5.152138
    25  H    2.464852   8.033602   5.444175   6.082064   5.807801
    26  C    4.392625   6.486828   2.402563   2.463264   4.329776
    27  H    4.717391   6.966909   3.014254   3.011236   4.871207
    28  H    4.145922   7.171470   3.239898   3.389750   4.912405
    29  H    5.373764   6.676873   2.479418   2.114918   4.710897
                    6          7          8          9         10
     6  C    0.000000
     7  C    2.447295   0.000000
     8  C    4.301569   2.492554   0.000000
     9  C    2.471286   2.474237   2.524523   0.000000
    10  H    3.280418   3.293294   2.711722   1.095807   0.000000
    11  H    3.113870   3.141952   2.867792   1.105849   1.701066
    12  C    1.391857   2.854092   3.852381   1.480173   2.108065
    13  C    2.546440   4.300756   4.966159   2.464617   2.594474
    14  C    3.727770   1.489391   3.066691   3.897597   4.637952
    15  H    3.824854   2.135758   4.125850   4.597377   5.417626
    16  H    4.433509   2.137764   3.029488   4.253338   5.015377
    17  H    4.360503   2.139246   3.119083   4.332663   4.866163
    18  C    5.187837   3.847702   1.508076   2.897736   2.622230
    19  H    6.173335   4.596925   2.124596   3.940087   3.703561
    20  H    5.068382   4.123372   2.181643   2.649375   2.412752
    21  H    5.384216   4.278776   2.145485   3.113496   2.478130
    22  C    3.117768   5.314091   6.328842   3.874099   3.989846
    23  H    3.404160   5.737842   6.929820   4.439227   4.734499
    24  H    2.931594   5.162435   6.439312   4.153554   4.302902
    25  H    4.129523   6.189745   6.925373   4.502992   4.377809
    26  C    1.492704   3.717080   5.776536   3.903270   4.639275
    27  H    2.157919   4.274690   6.279239   4.435452   4.987976
    28  H    2.144105   4.486340   6.353923   4.229591   4.941935
    29  H    2.134957   3.819814   6.125771   4.564734   5.414723
                   11         12         13         14         15
    11  H    0.000000
    12  C    2.094448   0.000000
    13  C    2.744103   1.453766   0.000000
    14  C    4.473406   4.329759   5.779728   0.000000
    15  H    5.176251   4.725440   6.160777   1.089471   0.000000
    16  H    4.599299   4.896694   6.330400   1.086649   1.767082
    17  H    5.034539   4.860618   6.267703   1.087102   1.766006
    18  C    2.932276   4.365533   5.126894   4.570668   5.620366
    19  H    3.868515   5.415313   6.192025   5.059781   6.137517
    20  H    2.310027   4.087941   4.666259   5.046761   6.030238
    21  H    3.370603   4.466175   5.061041   5.078063   6.109606
    22  C    4.224234   2.593817   1.509685   6.723561   6.917463
    23  H    4.608602   3.104575   2.152181   7.109749   7.200836
    24  H    4.727311   2.792448   2.181121   6.471947   6.564906
    25  H    4.804197   3.420239   2.110993   7.622413   7.884980
    26  C    4.437281   2.594363   3.189164   4.753775   4.537942
    27  H    5.121053   3.093532   3.481536   5.258703   5.021899
    28  H    4.547687   2.839873   3.021485   5.609470   5.434470
    29  H    5.053502   3.433928   4.204451   4.566149   4.120173
                   16         17         18         19         20
    16  H    0.000000
    17  H    1.738821   0.000000
    18  C    4.467590   4.590970   0.000000
    19  H    4.769940   5.002047   1.085381   0.000000
    20  H    4.914993   5.266015   1.086482   1.768146   0.000000
    21  H    5.161386   4.942969   1.090624   1.758519   1.752374
    22  C    7.396991   7.198997   6.577750   7.653879   6.164667
    23  H    7.724582   7.710486   7.228783   8.283129   6.726297
    24  H    7.266295   6.869298   6.867307   7.950448   6.612690
    25  H    8.289770   8.024752   6.977823   8.044187   6.529701
    26  C    5.508546   5.405768   6.676833   7.664857   6.517014
    27  H    6.136150   5.739199   7.158104   8.174071   7.081385
    28  H    6.257208   6.333200   7.098567   8.099988   6.778220
    29  H    5.287398   5.292908   7.185516   8.105785   7.081561
                   21         22         23         24         25
    21  H    0.000000
    22  C    6.431237   0.000000
    23  H    7.208625   1.092071   0.000000
    24  H    6.673027   1.086898   1.765274   0.000000
    25  H    6.704243   1.087920   1.760086   1.773990   0.000000
    26  C    6.841567   3.056415   3.020593   2.633878   4.122416
    27  H    7.171928   3.012998   3.151592   2.239599   3.961130
    28  H    7.286554   2.671219   2.277325   2.526083   3.722049
    29  H    7.455405   4.123537   3.968932   3.684242   5.191006
                   26         27         28         29
    26  C    0.000000
    27  H    1.090829   0.000000
    28  H    1.085594   1.757486   0.000000
    29  H    1.089606   1.754983   1.751048   0.000000
 Stoichiometry    C11H15NO2
 Framework group  C1[X(C11H15NO2)]
 Deg. of freedom    81
 Full point group                 C1      NOp   1
 RotChk:  IX=0 Diff= 5.81D-16
 Largest Abelian subgroup         C1      NOp   1
 Largest concise Abelian subgroup C1      NOp   1
                         Standard orientation:                         
 ---------------------------------------------------------------------
 Center     Atomic      Atomic             Coordinates (Angstroms)
 Number     Number       Type             X           Y           Z
 ---------------------------------------------------------------------
      1          8           0        2.283864   -2.285521   -0.272774
      2          8           0       -3.628794   -0.259588    0.249614
      3          7           0        0.018741    1.803487   -0.080893
      4          1           0        0.044530    2.814301   -0.088359
      5          6           0       -1.295506   -0.149085   -0.047289
      6          6           0        1.232151    1.176247   -0.071473
      7          6           0       -1.213821    1.245821   -0.030991
      8          6           0       -2.559858   -0.849562    0.070874
      9          6           0       -0.051265   -0.931727   -0.200093
     10          1           0       -0.050219   -1.792774    0.477690
     11          1           0       -0.048934   -1.434251   -1.185164
     12          6           0        1.237442   -0.215596   -0.068548
     13          6           0        2.400229   -1.085282    0.002238
     14          6           0       -2.348480    2.209377    0.017928
     15          1           0       -1.991833    3.234253   -0.078915
     16          1           0       -3.063812    2.014975   -0.776625
     17          1           0       -2.899599    2.123415    0.951025
     18          6           0       -2.566680   -2.356052    0.002052
     19          1           0       -3.575276   -2.693952   -0.213840
     20          1           0       -1.890891   -2.757926   -0.747782
     21          1           0       -2.271121   -2.779424    0.962709
     22          6           0        3.752032   -0.584057    0.450066
     23          1           0        4.324132   -0.209107   -0.401247
     24          1           0        3.692257    0.206202    1.193884
     25          1           0        4.295156   -1.429753    0.866462
     26          6           0        2.402572    2.102178   -0.101995
     27          1           0        2.837766    2.253473    0.886753
     28          1           0        3.186958    1.732026   -0.754866
     29          1           0        2.106233    3.081430   -0.476813
 ---------------------------------------------------------------------
 Rotational constants (GHZ):           1.0740376           0.4897956           0.3428618
 Leave Link  202 at Fri Jan 23 17:38:51 2026, MaxMem=  2147483648 cpu:               0.0 elap:               0.0
 (Enter /data/home/wyx/g16/l301.exe)
 Standard basis: TZVP (5D, 7F)
 Ernie: Thresh=  0.10000D-02 Tol=  0.10000D-05 Strict=F.
 There are   370 symmetry adapted cartesian basis functions of A   symmetry.
 There are   356 symmetry adapted basis functions of A   symmetry.
   356 basis functions,   610 primitive gaussians,   370 cartesian basis functions
    52 alpha electrons       52 beta electrons
       nuclear repulsion energy       899.1605564556 Hartrees.
 IExCor=20419 DFT=T Ex+Corr=CAM-B3LYP ExCW=0 ScaHFX=  1.000000
 ScaDFX=  1.000000  1.000000  1.000000  0.810000 ScalE2=  1.000000  1.000000
 IRadAn=      5 IRanWt=     -1 IRanGd=            0 ICorTp=0 IEmpDi=141
 HFx  wShort=  0.000000 wLong=  0.330000 cFull=  0.190000 cShort=  0.000000 cLong=  0.460000
 DFx  wShort=  0.000000 wLong=  0.330000 cFull=  0.190000 cShort=  0.000000 cLong=  0.460000
 NAtoms=   29 NActive=   29 NUniq=   29 SFac= 1.00D+00 NAtFMM=   60 NAOKFM=F Big=F
 Integral buffers will be    131072 words long.
 Raffenetti 1 integral format.
 Two-electron integral symmetry is turned on.
 R6Disp:  Grimme-D3(BJ) Dispersion energy=       -0.0261244882 Hartrees.
 Nuclear repulsion after empirical dispersion term =      899.1344319673 Hartrees.
 ------------------------------------------------------------------------------
 Polarizable Continuum Model (PCM)
 =================================
 Model                : PCM.
 Atomic radii         : UFF (Universal Force Field).
 Polarization charges : Total charges.
 Charge compensation  : None.
 Solution method      : On-the-fly selection.
 Cavity type          : Scaled VdW (van der Waals Surface) (Alpha=1.100).
 Cavity algorithm     : GePol (No added spheres)
                        Default sphere list used, NSphG=   29.
                        Lebedev-Laikov grids with approx.  5.0 points / Ang**2.
                        Smoothing algorithm: York/Karplus (Gamma=1.0000).
                        Polarization charges: spherical gaussians, with
                                              point-specific exponents (IZeta= 3).
                        Self-potential: point-specific (ISelfS= 7).
                        Self-field    : sphere-specific E.n sum rule (ISelfD= 2).
 1st derivatives      : Analytical E(r).r(x)/FMM algorithm (CHGder, D1EAlg=3).
                        Cavity 1st derivative terms included.
 Solvent              : TetraHydroFuran, Eps=   7.425700 Eps(inf)=   1.974025
 ------------------------------------------------------------------------------
 GePol: Number of generator spheres                  =      29
 GePol: Total number of spheres                      =      29
 GePol: Number of exposed spheres                    =      29 (100.00%)
 GePol: Number of points                             =    2094
 GePol: Average weight of points                     =       0.13
 GePol: Minimum weight of points                     =   0.10D-10
 GePol: Maximum weight of points                     =    0.20577
 GePol: Number of points with low weight             =     124
 GePol: Fraction of low-weight points (<1% of avg)   =       5.92%
 GePol: Cavity surface area                          =    269.241 Ang**2
 GePol: Cavity volume                                =    287.252 Ang**3
 Leave Link  301 at Fri Jan 23 17:38:51 2026, MaxMem=  2147483648 cpu:               0.6 elap:               0.0
 (Enter /data/home/wyx/g16/l302.exe)
 NPDir=0 NMtPBC=     1 NCelOv=     1 NCel=       1 NClECP=     1 NCelD=      1
         NCelK=      1 NCelE2=     1 NClLst=     1 CellRange=     0.0.
 One-electron integrals computed using PRISM.
 One-electron integral symmetry used in STVInt
 NBasis=   356 RedAO= T EigKep=  4.08D-05  NBF=   356
 NBsUse=   356 1.00D-06 EigRej= -1.00D+00 NBFU=   356
 Precomputing XC quadrature grid using
 IXCGrd= 4 IRadAn=           5 IRanWt=          -1 IRanGd=           0 AccXCQ= 0.00D+00.
 Generated NRdTot=       0 NPtTot=           0 NUsed=           0 NTot=          32
 NSgBfM=   366   366   366   366   366 MxSgAt=    29 MxSgA2=    29.
 Leave Link  302 at Fri Jan 23 17:38:51 2026, MaxMem=  2147483648 cpu:               3.1 elap:               0.2
 (Enter /data/home/wyx/g16/l303.exe)
 DipDrv:  MaxL=1.
 Leave Link  303 at Fri Jan 23 17:38:51 2026, MaxMem=  2147483648 cpu:               0.6 elap:               0.0
 (Enter /data/home/wyx/g16/l308.exe)
 Leave Link  308 at Fri Jan 23 17:38:52 2026, MaxMem=  2147483648 cpu:               0.7 elap:               0.1
 (Enter /data/home/wyx/g16/l401.exe)
 Initial guess from the checkpoint file:  "DDL-S2-cLR-3.chk"
 B after Tr=    -0.000000    0.000000   -0.000000
         Rot=    1.000000    0.000000   -0.000000   -0.000000 Ang=   0.00 deg.
 Guess basis will be translated and rotated to current coordinates.
 JPrj=2 DoOrth=T DoCkMO=T.
 Leave Link  401 at Fri Jan 23 17:38:52 2026, MaxMem=  2147483648 cpu:               2.3 elap:               0.2
 (Enter /data/home/wyx/g16/l502.exe)
 Integral symmetry usage will be decided dynamically.
 Closed shell SCF:
 Using DIIS extrapolation, IDIIS=  1040.
 NGot=  2147483648 LenX=  2147200095 LenY=  2147062754
 Requested convergence on RMS density matrix=1.00D-08 within 128 cycles.
 Requested convergence on MAX density matrix=1.00D-06.
 Requested convergence on             energy=1.00D-06.
 No special actions if energy rises.
 Fock matrices will be formed incrementally for  20 cycles.

 Cycle   1  Pass 1  IDiag  1:
 FoFJK:  IHMeth= 1 ICntrl=       0 DoSepK=T KAlg= 0 I1Cent=           0 FoldK=F
 IRaf=         1 NMat=       1 IRICut=       1 DoRegI=T DoRafI=F ISym2E= 0 IDoP0=0 IntGTp=1.
 FoFCou: FMM=F IPFlag=           0 FMFlag=      100000 FMFlg1=           0
         NFxFlg=           0 DoJE=T BraDBF=F KetDBF=F FulRan=T
         wScrn=  0.000000 ICntrl=       500 IOpCl=  0 I1Cent=           0 NGrid=           0
         NMat0=    1 NMatS0=      1 NMatT0=    0 NMatD0=    1 NMtDS0=    0 NMtDT0=    0
 Symmetry not used in FoFCou.
 Inv3:  Mode=1 IEnd=    13154508.
 Iteration    1 A*A^-1 deviation from unit magnitude is 3.55D-15 for    368.
 Iteration    1 A*A^-1 deviation from orthogonality  is 2.11D-15 for   1306    430.
 Iteration    1 A^-1*A deviation from unit magnitude is 3.77D-15 for    368.
 Iteration    1 A^-1*A deviation from orthogonality  is 1.71D-15 for   1762    605.
 E= -633.320851376034    
 DIIS: error= 1.22D-08 at cycle   1 NSaved=   1.
 NSaved= 1 IEnMin= 1 EnMin= -633.320851376034     IErMin= 1 ErrMin= 1.22D-08
 ErrMax= 1.22D-08  0.00D+00 EMaxC= 1.00D-01 BMatC= 6.57D-14 BMatP= 6.57D-14
 IDIUse=1 WtCom= 1.00D+00 WtEn= 0.00D+00
 Coeff-Com:  0.100D+01
 Coeff:      0.100D+01
 Gap=     0.219 Goal=   None    Shift=    0.000
 RMSDP=3.62D-09 MaxDP=1.17D-07              OVMax= 1.87D-07

 Error on total polarization charges =  0.01437
 SCF Done:  E(RCAM-B3LYP) =  -633.320851376     A.U. after    1 cycles
            NFock=  1  Conv=0.36D-08     -V/T= 2.0043
 KE= 6.306402743718D+02 PE=-3.274213732053D+03 EE= 1.111118174338D+03
 Leave Link  502 at Fri Jan 23 17:38:58 2026, MaxMem=  2147483648 cpu:              85.7 elap:               5.6
 (Enter /data/home/wyx/g16/l801.exe)
 DoSCS=F DFT=T ScalE2(SS,OS)=  1.000000  1.000000
 ExpMin= 9.52D-02 ExpMax= 2.70D+04 ExpMxC= 9.22D+02 IAcc=3 IRadAn=         5 AccDes= 0.00D+00
 HarFok:  IExCor=  205 AccDes= 0.00D+00 IRadAn=         5 IDoV=-2 UseB2=F ITyADJ=14
 ICtDFT= 12500011 ScaDFX=  1.000000  1.000000  1.000000  1.000000
 Largest valence mixing into a core orbital is  5.59D-05
 Largest core mixing into a valence orbital is  1.15D-05
 Range of M.O.s used for correlation:    15   356
 NBasis=   356 NAE=    52 NBE=    52 NFC=    14 NFV=     0
 NROrb=    342 NOA=    38 NOB=    38 NVA=   304 NVB=   304

 **** Warning!!: The largest alpha MO coefficient is  0.61270104D+02

 Leave Link  801 at Fri Jan 23 17:38:58 2026, MaxMem=  2147483648 cpu:               1.0 elap:               0.1
 (Enter /data/home/wyx/g16/l914.exe)
 RHF ground state
 Two-electron integrals replicated using symmetry.
 MDV=  2147483648 DFT=T DoStab=F Mixed=T DoRPA=T DoScal=F NonHer=T
 NEqPCM:  Using equilibrium solvation (IEInf=0, Eps=   7.4257, EpsInf=   1.9740)
 Making orbital integer symmetry assigments:
 Orbital symmetries:
       Occupied  (A) (A) (A) (A) (A) (A) (A) (A) (A) (A) (A) (A)
                 (A) (A) (A) (A) (A) (A) (A) (A) (A) (A) (A) (A)
                 (A) (A) (A) (A) (A) (A) (A) (A) (A) (A) (A) (A)
                 (A) (A) (A) (A) (A) (A) (A) (A) (A) (A) (A) (A)
                 (A) (A) (A) (A)
       Virtual   (A) (A) (A) (A) (A) (A) (A) (A) (A) (A) (A) (A)
                 (A) (A) (A) (A) (A) (A) (A) (A) (A) (A) (A) (A)
                 (A) (A) (A) (A) (A) (A) (A) (A) (A) (A) (A) (A)
                 (A) (A) (A) (A) (A) (A) (A) (A) (A) (A) (A) (A)
                 (A) (A) (A) (A) (A) (A) (A) (A) (A) (A) (A) (A)
                 (A) (A) (A) (A) (A) (A) (A) (A) (A) (A) (A) (A)
                 (A) (A) (A) (A) (A) (A) (A) (A) (A) (A) (A) (A)
                 (A) (A) (A) (A) (A) (A) (A) (A) (A) (A) (A) (A)
                 (A) (A) (A) (A) (A) (A) (A) (A) (A) (A) (A) (A)
                 (A) (A) (A) (A) (A) (A) (A) (A) (A) (A) (A) (A)
                 (A) (A) (A) (A) (A) (A) (A) (A) (A) (A) (A) (A)
                 (A) (A) (A) (A) (A) (A) (A) (A) (A) (A) (A) (A)
                 (A) (A) (A) (A) (A) (A) (A) (A) (A) (A) (A) (A)
                 (A) (A) (A) (A) (A) (A) (A) (A) (A) (A) (A) (A)
                 (A) (A) (A) (A) (A) (A) (A) (A) (A) (A) (A) (A)
                 (A) (A) (A) (A) (A) (A) (A) (A) (A) (A) (A) (A)
                 (A) (A) (A) (A) (A) (A) (A) (A) (A) (A) (A) (A)
                 (A) (A) (A) (A) (A) (A) (A) (A) (A) (A) (A) (A)
                 (A) (A) (A) (A) (A) (A) (A) (A) (A) (A) (A) (A)
                 (A) (A) (A) (A) (A) (A) (A) (A) (A) (A) (A) (A)
                 (A) (A) (A) (A) (A) (A) (A) (A) (A) (A) (A) (A)
                 (A) (A) (A) (A) (A) (A) (A) (A) (A) (A) (A) (A)
                 (A) (A) (A) (A) (A) (A) (A) (A) (A) (A) (A) (A)
                 (A) (A) (A) (A) (A) (A) (A) (A) (A) (A) (A) (A)
                 (A) (A) (A) (A) (A) (A) (A) (A) (A) (A) (A) (A)
                 (A) (A) (A) (A)
 PCM Corrected Linear-Response:
 Compute the excitation energies in the ground state reaction field.
    24 initial guesses have been made.
 Convergence on wavefunction:    0.000001000000000
 Davidson Disk Diagonalization:  ConvIn= 1.00D-06 SkipCon=T Conv= 1.00D-06.
 Max sub-space:  2000 roots to seek:    24 dimension of matrix:        23104
 Iteration     1 Dimension    24 NMult     0 NNew     24
 CISAX will form    24 AO SS matrices at one time.
 NMat=    24 NSing=    24 JSym2X= 0.
 FoFJK:  IHMeth= 1 ICntrl=       0 DoSepK=T KAlg= 0 I1Cent=           0 FoldK=F
 IRaf=         1 NMat=      48 IRICut=       1 DoRegI=T DoRafI=F ISym2E= 0 IDoP0=3 IntGTp=3.
 FoFCou: FMM=F IPFlag=           0 FMFlag=      100000 FMFlg1=           0
         NFxFlg=           0 DoJE=F BraDBF=F KetDBF=F FulRan=T
         wScrn=  0.000000 ICntrl=       500 IOpCl=  0 I1Cent=           0 NGrid=           0
         NMat0=   24 NMatS0=     24 NMatT0=    0 NMatD0=   24 NMtDS0=    0 NMtDT0=    0
 Symmetry not used in FoFCou.
 New state      2 was old state      3
 New state      3 was old state      4
 New state      4 was old state      2
 New state      5 was old state      6
 New state      6 was old state      5
 Excitation Energies [eV] at current iteration:
 Root      1 :     3.551321044972715
 Root      2 :     4.163184079971281
 Root      3 :     4.378136434350909
 Root      4 :     5.311476767359442
 Root      5 :     5.911969464519032
 Root      6 :     6.299639510874028
 Root      7 :     6.471711520321329
 Root      8 :     6.687887749875681
 Root      9 :     6.814825072491782
 Root     10 :     6.959693327300698
 Root     11 :     7.092535298816630
 Root     12 :     7.314098665176566
 Root     13 :     7.334497510849696
 Root     14 :     7.353651089097570
 Root     15 :     7.753465612151634
 Root     16 :     7.952952174220798
 Root     17 :     7.960966998019456
 Root     18 :     8.103255633738664
 Root     19 :     8.142463588818659
 Root     20 :     8.322119608548746
 Root     21 :     8.370443338957783
 Root     22 :     8.581714393662217
 Root     23 :     8.667368671665718
 Root     24 :     8.867034881716521
 Iteration     2 Dimension    36 NMult    24 NNew     12
 CISAX will form    12 AO SS matrices at one time.
 NMat=    12 NSing=    12 JSym2X= 0.
 Root      1 not converged, maximum delta is    0.038094409873836
 Root      2 not converged, maximum delta is    0.075730954479117
 Root      3 not converged, maximum delta is    0.089125167999512
 Root      4 not converged, maximum delta is    0.188669857615492
 New state      5 was old state      6
 Root      5 not converged, maximum delta is    0.178979710704630
 New state      6 was old state      5
 Root      6 not converged, maximum delta is    0.082117998235940
 Excitation Energies [eV] at current iteration:
 Root      1 :     3.082267634331028   Change is   -0.469053410641687
 Root      2 :     3.948099039768640   Change is   -0.215085040202641
 Root      3 :     4.119439009658123   Change is   -0.258697424692786
 Root      4 :     5.000141513624841   Change is   -0.311335253734601
 Root      5 :     5.487389221638469   Change is   -0.812250289235558
 Root      6 :     5.809407221891451   Change is   -0.102562242627580
 Iteration     3 Dimension    48 NMult    36 NNew     12
 CISAX will form    12 AO SS matrices at one time.
 NMat=    12 NSing=    12 JSym2X= 0.
 Root      1 not converged, maximum delta is    0.008580596774495
 Root      2 not converged, maximum delta is    0.016974775114525
 Root      3 not converged, maximum delta is    0.013635355504935
 Root      4 not converged, maximum delta is    0.024011605228190
 Root      5 not converged, maximum delta is    0.024937325674827
 Root      6 not converged, maximum delta is    0.006543371638393
 Excitation Energies [eV] at current iteration:
 Root      1 :     3.062532167773888   Change is   -0.019735466557140
 Root      2 :     3.935279410687622   Change is   -0.012819629081019
 Root      3 :     4.105187958247754   Change is   -0.014251051410370
 Root      4 :     4.980298555703929   Change is   -0.019842957920912
 Root      5 :     5.442096520333654   Change is   -0.045292701304815
 Root      6 :     5.804736792357049   Change is   -0.004670429534402
 Iteration     4 Dimension    60 NMult    48 NNew     12
 CISAX will form    12 AO SS matrices at one time.
 NMat=    12 NSing=    12 JSym2X= 0.
 Root      1 not converged, maximum delta is    0.002641922821206
 Root      2 not converged, maximum delta is    0.001851884819068
 Root      3 not converged, maximum delta is    0.002470767354701
 Root      4 not converged, maximum delta is    0.002870692763491
 Root      5 not converged, maximum delta is    0.004461077750476
 Root      6 not converged, maximum delta is    0.001961039017239
 Excitation Energies [eV] at current iteration:
 Root      1 :     3.061041057568054   Change is   -0.001491110205834
 Root      2 :     3.934700250217831   Change is   -0.000579160469790
 Root      3 :     4.104199700044222   Change is   -0.000988258203532
 Root      4 :     4.978252984897665   Change is   -0.002045570806263
 Root      5 :     5.436624857092601   Change is   -0.005471663241053
 Root      6 :     5.804440151149437   Change is   -0.000296641207612
 Iteration     5 Dimension    72 NMult    60 NNew     12
 CISAX will form    12 AO SS matrices at one time.
 NMat=    12 NSing=    12 JSym2X= 0.
 Root      1 not converged, maximum delta is    0.000740152089885
 Root      2 not converged, maximum delta is    0.000368111930912
 Root      3 not converged, maximum delta is    0.000489499362905
 Root      4 not converged, maximum delta is    0.000637452656777
 Root      5 not converged, maximum delta is    0.001224692541364
 Root      6 not converged, maximum delta is    0.000331274452411
 Excitation Energies [eV] at current iteration:
 Root      1 :     3.060955702026496   Change is   -0.000085355541557
 Root      2 :     3.934650915041126   Change is   -0.000049335176706
 Root      3 :     4.104152062188788   Change is   -0.000047637855434
 Root      4 :     4.978106428753246   Change is   -0.000146556144420
 Root      5 :     5.436201119537914   Change is   -0.000423737554688
 Root      6 :     5.804417542619653   Change is   -0.000022608529785
 Iteration     6 Dimension    84 NMult    72 NNew     12
 CISAX will form    12 AO SS matrices at one time.
 NMat=    12 NSing=    12 JSym2X= 0.
 Root      1 not converged, maximum delta is    0.000143044006287
 Root      2 not converged, maximum delta is    0.000139037968224
 Root      3 not converged, maximum delta is    0.000116822147932
 Root      4 not converged, maximum delta is    0.000161736195674
 Root      5 not converged, maximum delta is    0.000583099376881
 Root      6 not converged, maximum delta is    0.000112385103182
 Excitation Energies [eV] at current iteration:
 Root      1 :     3.060951479935376   Change is   -0.000004222091120
 Root      2 :     3.934648081814104   Change is   -0.000002833227022
 Root      3 :     4.104149259106322   Change is   -0.000002803082466
 Root      4 :     4.978096955178788   Change is   -0.000009473574457
 Root      5 :     5.436167501989916   Change is   -0.000033617547998
 Root      6 :     5.804415519884560   Change is   -0.000002022735093
 Iteration     7 Dimension    96 NMult    84 NNew     12
 CISAX will form    12 AO SS matrices at one time.
 NMat=    12 NSing=    12 JSym2X= 0.
 Root      1 not converged, maximum delta is    0.000014827742973
 Root      2 not converged, maximum delta is    0.000031634703135
 Root      3 not converged, maximum delta is    0.000034814961900
 Root      4 not converged, maximum delta is    0.000053183099362
 Root      5 not converged, maximum delta is    0.000272738639376
 Root      6 not converged, maximum delta is    0.000053965072733
 Excitation Energies [eV] at current iteration:
 Root      1 :     3.060951278291371   Change is   -0.000000201644005
 Root      2 :     3.934647929886978   Change is   -0.000000151927126
 Root      3 :     4.104149080487781   Change is   -0.000000178618541
 Root      4 :     4.978096204882607   Change is   -0.000000750296182
 Root      5 :     5.436163624746407   Change is   -0.000003877243509
 Root      6 :     5.804415340730224   Change is   -0.000000179154336
 Iteration     8 Dimension   108 NMult    96 NNew     12
 CISAX will form    12 AO SS matrices at one time.
 NMat=    12 NSing=    12 JSym2X= 0.
 Root      1 not converged, maximum delta is    0.000002332919232
 Root      2 not converged, maximum delta is    0.000003537136956
 Root      3 not converged, maximum delta is    0.000003455261162
 Root      4 not converged, maximum delta is    0.000023379816839
 Root      5 not converged, maximum delta is    0.000045582100596
 Root      6 not converged, maximum delta is    0.000012819261854
 Excitation Energies [eV] at current iteration:
 Root      1 :     3.060951270422287   Change is   -0.000000007869084
 Root      2 :     3.934647923392651   Change is   -0.000000006494327
 Root      3 :     4.104149071631104   Change is   -0.000000008856677
 Root      4 :     4.978096141781927   Change is   -0.000000063100679
 Root      5 :     5.436163341770485   Change is   -0.000000282975922
 Root      6 :     5.804415325907573   Change is   -0.000000014822651
 Iteration     9 Dimension   120 NMult   108 NNew     12
 CISAX will form    12 AO SS matrices at one time.
 NMat=    12 NSing=    12 JSym2X= 0.
 Root      1 has converged.
 Root      2 has converged.
 Root      3 has converged.
 Root      4 not converged, maximum delta is    0.000005489210737
 Root      5 not converged, maximum delta is    0.000007172628149
 Root      6 not converged, maximum delta is    0.000003161715642
 Excitation Energies [eV] at current iteration:
 Root      1 :     3.060951270162286   Change is   -0.000000000260001
 Root      2 :     3.934647923147051   Change is   -0.000000000245600
 Root      3 :     4.104149071346393   Change is   -0.000000000284711
 Root      4 :     4.978096138224862   Change is   -0.000000003557066
 Root      5 :     5.436163326158180   Change is   -0.000000015612305
 Root      6 :     5.804415324784920   Change is   -0.000000001122653
 Iteration    10 Dimension   126 NMult   120 NNew      6
 CISAX will form     6 AO SS matrices at one time.
 NMat=     6 NSing=     6 JSym2X= 0.
 Root      1 has converged.
 Root      2 has converged.
 Root      3 has converged.
 Root      4 not converged, maximum delta is    0.000001037804357
 Root      5 not converged, maximum delta is    0.000001668816711
 Root      6 has converged.
 Excitation Energies [eV] at current iteration:
 Root      1 :     3.060951270161426   Change is   -0.000000000000859
 Root      2 :     3.934647923145087   Change is   -0.000000000001964
 Root      3 :     4.104149071344311   Change is   -0.000000000002083
 Root      4 :     4.978096138047503   Change is   -0.000000000177359
 Root      5 :     5.436163325355305   Change is   -0.000000000802875
 Root      6 :     5.804415324708383   Change is   -0.000000000076537
 Iteration    11 Dimension   130 NMult   126 NNew      4
 CISAX will form     4 AO SS matrices at one time.
 NMat=     4 NSing=     4 JSym2X= 0.
 Root      1 has converged.
 Root      2 has converged.
 Root      3 has converged.
 Root      4 has converged.
 Root      5 has converged.
 Root      6 has converged.
 Excitation Energies [eV] at current iteration:
 Root      1 :     3.060951270161345   Change is   -0.000000000000080
 Root      2 :     3.934647923145004   Change is   -0.000000000000084
 Root      3 :     4.104149071344210   Change is   -0.000000000000100
 Root      4 :     4.978096138037166   Change is   -0.000000000010337
 Root      5 :     5.436163325313265   Change is   -0.000000000042040
 Root      6 :     5.804415324707151   Change is   -0.000000000001232
 Convergence achieved on expansion vectors.
 PCM Corrected Linear-Response:
 The state of interest is root number   2
 Excitation energy =    3.9346 eV, Total energy =  -633.176255725    
 Recompute the excitation energies using the linear response reaction field.
 Convergence on wavefunction:    0.000001000000000
 Davidson Disk Diagonalization:  ConvIn= 1.00D-06 SkipCon=T Conv= 1.00D-06.
 Max sub-space:  2000 roots to seek:     6 dimension of matrix:        23104
 Iteration     1 Dimension     6 NMult     0 NNew      6
 CISAX will form     6 AO SS matrices at one time.
 NMat=     6 NSing=     6 JSym2X= 0.
 Excitation Energies [eV] at current iteration:
 Root      1 :     3.177731098016030
 Root      2 :     3.960453918972742
 Root      3 :     4.130901695816926
 Root      4 :     5.054863141991558
 Root      5 :     5.622859847340260
 Root      6 :     5.781380983203871
 Iteration     2 Dimension    18 NMult     6 NNew     12
 CISAX will form    12 AO SS matrices at one time.
 NMat=    12 NSing=    12 JSym2X= 0.
 Root      1 not converged, maximum delta is    0.021741253243912
 Root      2 not converged, maximum delta is    0.002939429839758
 Root      3 not converged, maximum delta is    0.005958480947036
 Root      4 not converged, maximum delta is    0.213747915698548
 Root      5 not converged, maximum delta is    0.262035612897320
 Root      6 not converged, maximum delta is    0.097560851609453
 Excitation Energies [eV] at current iteration:
 Root      1 :     2.946878782375578   Change is   -0.230852315640452
 Root      2 :     3.930741064847766   Change is   -0.029712854124977
 Root      3 :     4.099246608133477   Change is   -0.031655087683449
 Root      4 :     4.858427481084625   Change is   -0.196435660906932
 Root      5 :     5.304294111206791   Change is   -0.318565736133469
 Root      6 :     5.761946589583633   Change is   -0.019434393620238
 Iteration     3 Dimension    30 NMult    18 NNew     12
 CISAX will form    12 AO SS matrices at one time.
 NMat=    12 NSing=    12 JSym2X= 0.
 Root      1 not converged, maximum delta is    0.002377141306807
 Root      2 not converged, maximum delta is    0.000826087871081
 Root      3 not converged, maximum delta is    0.001107949146531
 Root      4 not converged, maximum delta is    0.011666491792962
 Root      5 not converged, maximum delta is    0.013739805770441
 Root      6 not converged, maximum delta is    0.009183496743608
 Excitation Energies [eV] at current iteration:
 Root      1 :     2.944103424528036   Change is   -0.002775357847543
 Root      2 :     3.930482234436132   Change is   -0.000258830411634
 Root      3 :     4.098953520214454   Change is   -0.000293087919023
 Root      4 :     4.850861752799632   Change is   -0.007565728284993
 Root      5 :     5.295335558668365   Change is   -0.008958552538426
 Root      6 :     5.760763437328986   Change is   -0.001183152254647
 Iteration     4 Dimension    42 NMult    30 NNew     12
 CISAX will form    12 AO SS matrices at one time.
 NMat=    12 NSing=    12 JSym2X= 0.
 Root      1 not converged, maximum delta is    0.001540447780472
 Root      2 not converged, maximum delta is    0.000209812658729
 Root      3 not converged, maximum delta is    0.000198283493674
 Root      4 not converged, maximum delta is    0.002312931335586
 Root      5 not converged, maximum delta is    0.004478232174757
 Root      6 not converged, maximum delta is    0.011088266361535
 Excitation Energies [eV] at current iteration:
 Root      1 :     2.943760388612686   Change is   -0.000343035915350
 Root      2 :     3.930469729895440   Change is   -0.000012504540692
 Root      3 :     4.098937068725235   Change is   -0.000016451489219
 Root      4 :     4.849776611174953   Change is   -0.001085141624680
 Root      5 :     5.294078243607480   Change is   -0.001257315060886
 Root      6 :     5.760319498548714   Change is   -0.000443938780272
 Iteration     5 Dimension    54 NMult    42 NNew     12
 CISAX will form    12 AO SS matrices at one time.
 NMat=    12 NSing=    12 JSym2X= 0.
 Root      1 not converged, maximum delta is    0.000376762869973
 Root      2 not converged, maximum delta is    0.000096799212506
 Root      3 not converged, maximum delta is    0.000089987162388
 Root      4 not converged, maximum delta is    0.000595234273406
 Root      5 not converged, maximum delta is    0.000498995529186
 Root      6 not converged, maximum delta is    0.004209991768647
 Excitation Energies [eV] at current iteration:
 Root      1 :     2.943737607571336   Change is   -0.000022781041351
 Root      2 :     3.930468954884100   Change is   -0.000000775011340
 Root      3 :     4.098935682563786   Change is   -0.000001386161449
 Root      4 :     4.849675774019942   Change is   -0.000100837155012
 Root      5 :     5.293941576832785   Change is   -0.000136666774694
 Root      6 :     5.760225590656570   Change is   -0.000093907892144
 Iteration     6 Dimension    66 NMult    54 NNew     12
 CISAX will form    12 AO SS matrices at one time.
 NMat=    12 NSing=    12 JSym2X= 0.
 Root      1 not converged, maximum delta is    0.000048174470120
 Root      2 not converged, maximum delta is    0.000025064628819
 Root      3 not converged, maximum delta is    0.000025580171490
 Root      4 not converged, maximum delta is    0.000320086209793
 Root      5 not converged, maximum delta is    0.000311134787946
 Root      6 not converged, maximum delta is    0.000801384953474
 Excitation Energies [eV] at current iteration:
 Root      1 :     2.943736229697236   Change is   -0.000001377874099
 Root      2 :     3.930468886511461   Change is   -0.000000068372639
 Root      3 :     4.098935564642884   Change is   -0.000000117920903
 Root      4 :     4.849665546264127   Change is   -0.000010227755815
 Root      5 :     5.293927390105184   Change is   -0.000014186727602
 Root      6 :     5.760213641007695   Change is   -0.000011949648875
 Iteration     7 Dimension    78 NMult    66 NNew     12
 CISAX will form    12 AO SS matrices at one time.
 NMat=    12 NSing=    12 JSym2X= 0.
 Root      1 not converged, maximum delta is    0.000008836165568
 Root      2 not converged, maximum delta is    0.000004766469180
 Root      3 not converged, maximum delta is    0.000004638934980
 Root      4 not converged, maximum delta is    0.000122303749074
 Root      5 not converged, maximum delta is    0.000118860381714
 Root      6 not converged, maximum delta is    0.000093567273407
 Excitation Energies [eV] at current iteration:
 Root      1 :     2.943736182047596   Change is   -0.000000047649640
 Root      2 :     3.930468882729006   Change is   -0.000000003782454
 Root      3 :     4.098935557744944   Change is   -0.000000006897939
 Root      4 :     4.849664720253234   Change is   -0.000000826010893
 Root      5 :     5.293926139206128   Change is   -0.000001250899055
 Root      6 :     5.760212498067729   Change is   -0.000001142939965
 Iteration     8 Dimension    90 NMult    78 NNew     12
 CISAX will form    12 AO SS matrices at one time.
 NMat=    12 NSing=    12 JSym2X= 0.
 Root      1 not converged, maximum delta is    0.000002659665217
 Root      2 not converged, maximum delta is    0.000001294999071
 Root      3 has converged.
 Root      4 not converged, maximum delta is    0.000014753988912
 Root      5 not converged, maximum delta is    0.000028170061636
 Root      6 not converged, maximum delta is    0.000046614079539
 Excitation Energies [eV] at current iteration:
 Root      1 :     2.943736180060140   Change is   -0.000000001987455
 Root      2 :     3.930468882587618   Change is   -0.000000000141388
 Root      3 :     4.098935557376018   Change is   -0.000000000368926
 Root      4 :     4.849664669498262   Change is   -0.000000050754971
 Root      5 :     5.293926037602602   Change is   -0.000000101603526
 Root      6 :     5.760212352730973   Change is   -0.000000145336758
 Iteration     9 Dimension   100 NMult    90 NNew     10
 CISAX will form    10 AO SS matrices at one time.
 NMat=    10 NSing=    10 JSym2X= 0.
 Root      1 has converged.
 Root      2 has converged.
 Root      3 has converged.
 Root      4 not converged, maximum delta is    0.000002810100470
 Root      5 not converged, maximum delta is    0.000006200759294
 Root      6 not converged, maximum delta is    0.000019182498714
 Excitation Energies [eV] at current iteration:
 Root      1 :     2.943736179984544   Change is   -0.000000000075597
 Root      2 :     3.930468882580737   Change is   -0.000000000006881
 Root      3 :     4.098935557366833   Change is   -0.000000000009186
 Root      4 :     4.849664666539926   Change is   -0.000000002958336
 Root      5 :     5.293926030302756   Change is   -0.000000007299846
 Root      6 :     5.760212333764229   Change is   -0.000000018966744
 Iteration    10 Dimension   106 NMult   100 NNew      6
 CISAX will form     6 AO SS matrices at one time.
 NMat=     6 NSing=     6 JSym2X= 0.
 Root      1 has converged.
 Root      2 has converged.
 Root      3 has converged.
 Root      4 not converged, maximum delta is    0.000001008659243
 Root      5 not converged, maximum delta is    0.000001917284353
 Root      6 not converged, maximum delta is    0.000005716650482
 Excitation Energies [eV] at current iteration:
 Root      1 :     2.943736179983567   Change is   -0.000000000000977
 Root      2 :     3.930468882580528   Change is   -0.000000000000209
 Root      3 :     4.098935557366090   Change is   -0.000000000000742
 Root      4 :     4.849664666376619   Change is   -0.000000000163308
 Root      5 :     5.293926029786024   Change is   -0.000000000516731
 Root      6 :     5.760212331713983   Change is   -0.000000002050246
 Iteration    11 Dimension   112 NMult   106 NNew      6
 CISAX will form     6 AO SS matrices at one time.
 NMat=     6 NSing=     6 JSym2X= 0.
 Root      1 has converged.
 Root      2 has converged.
 Root      3 has converged.
 Root      4 has converged.
 Root      5 has converged.
 Root      6 not converged, maximum delta is    0.000001659828558
 Excitation Energies [eV] at current iteration:
 Root      1 :     2.943736179983539   Change is   -0.000000000000028
 Root      2 :     3.930468882580423   Change is   -0.000000000000104
 Root      3 :     4.098935557365810   Change is   -0.000000000000281
 Root      4 :     4.849664666366482   Change is   -0.000000000010136
 Root      5 :     5.293926029746768   Change is   -0.000000000039257
 Root      6 :     5.760212331535945   Change is   -0.000000000178038
 Iteration    12 Dimension   114 NMult   112 NNew      2
 CISAX will form     2 AO SS matrices at one time.
 NMat=     2 NSing=     2 JSym2X= 0.
 Root      1 has converged.
 Root      2 has converged.
 Root      3 has converged.
 Root      4 has converged.
 Root      5 has converged.
 Root      6 has converged.
 Excitation Energies [eV] at current iteration:
 Root      1 :     2.943736179983483   Change is   -0.000000000000056
 Root      2 :     3.930468882580381   Change is   -0.000000000000042
 Root      3 :     4.098935557365710   Change is   -0.000000000000100
 Root      4 :     4.849664666366431   Change is   -0.000000000000051
 Root      5 :     5.293926029746690   Change is   -0.000000000000078
 Root      6 :     5.760212331521002   Change is   -0.000000000014942
 Convergence achieved on expansion vectors.
 ***********************************************************************
 Excited states from <AA,BB:AA,BB> singles matrix:
 ***********************************************************************
 
 1PDM for each excited state written to RWF  633
 Ground to excited state transition densities written to RWF  633
 Ground to excited state transition electric dipole moments (Au):
       state          X           Y           Z        Dip. S.      Osc.
         1         1.6271     -0.1807     -0.0493      2.6824      0.1935
         2        -0.0097     -0.0422      0.0357      0.0032      0.0003
         3        -0.0654      0.1022     -0.0238      0.0153      0.0015
         4         0.1935      1.7184     -0.0541      2.9933      0.3557
         5        -0.0724     -1.5479      0.0008      2.4011      0.3114
         6        -0.0164     -0.2085     -0.0428      0.0456      0.0064
 Ground to excited state transition velocity dipole moments (Au):
       state          X           Y           Z        Dip. S.      Osc.
         1        -0.1692      0.0154      0.0056      0.0289      0.1781
         2         0.0012      0.0064     -0.0020      0.0000      0.0002
         3         0.0091     -0.0131      0.0002      0.0003      0.0011
         4        -0.0394     -0.2925      0.0068      0.0872      0.3260
         5         0.0146      0.2951     -0.0012      0.0873      0.2991
         6         0.0047      0.0421      0.0292      0.0026      0.0083
 Ground to excited state transition magnetic dipole moments (Au):
       state          X           Y           Z
         1         0.0205     -0.0557      1.4773
         2         0.7851     -0.1146     -0.0953
         3         0.1896     -0.9674     -0.2186
         4        -0.0207      0.0616     -0.0685
         5         0.1080     -0.0999      0.2792
         6        -0.0513      0.0143     -0.0373
 Ground to excited state transition velocity quadrupole moments (Au):
       state          XX          YY          ZZ          XY          XZ          YZ
         1         0.1659     -0.0895     -0.0060      0.4830     -0.0295     -0.0184
         2         0.0231     -0.0085     -0.0098     -0.0113      0.0082      0.0769
         3        -0.0296      0.0059      0.0184     -0.0665      0.0628      0.0103
         4         1.3207     -0.2775     -0.0147     -0.0704     -0.0724      0.0283
         5        -0.4571      0.2890      0.0333      0.2306      0.0602      0.0031
         6         0.1232      0.1423     -0.1177     -0.0152     -0.0277     -0.1171
 <0|del|b> * <b|rxdel|0> + <0|del|b> * <b|delr+rdel|0>
 Rotatory Strengths (R) in cgs (10**-40 erg-esu-cm/Gauss)
       state          XX          YY          ZZ    R(velocity)    E-M Angle
         1        34.2540     16.8813    -25.8041      8.4437       89.12
         2        -1.4024      2.8726      0.3642      0.6115       86.04
         3        31.4345      4.1998     31.5929     22.4091       27.22
         4       -79.6389     -0.5696     10.0823    -23.3754      129.35
         5       -86.9706      2.8421    -18.5361    -34.2215      107.63
         6         0.3895     -2.4076     -0.4190     -0.8124      102.61
 1/2[<0|r|b>*<b|rxdel|0> + (<0|rxdel|b>*<b|r|0>)*]
 Rotatory Strengths (R) in cgs (10**-40 erg-esu-cm/Gauss)
       state          XX          YY          ZZ     R(length)
         1       -23.5829     -7.1126     51.4770      6.9272
         2         5.3666     -3.4213      2.4101      1.4518
         3         8.7689     69.9425     -3.6812     25.0101
         4         2.8298    -74.8870     -2.6179    -24.8917
         5         5.5286   -109.3737     -0.1647    -34.6699
         6        -0.5933      2.1114     -1.1316      0.1288
  1/2[<0|del|b>*<b|r|0> + (<0|r|b>*<b|del|0>)*] (Au)
       state          X           Y           Z        Dip. S.   Osc.(frdel)
         1        -0.2753     -0.0028     -0.0003      0.2784      0.1856
         2        -0.0000     -0.0003     -0.0001      0.0004      0.0002
         3        -0.0006     -0.0013     -0.0000      0.0019      0.0013
         4        -0.0076     -0.5026     -0.0004      0.5106      0.3404
         5        -0.0011     -0.4568     -0.0000      0.4578      0.3052
         6        -0.0001     -0.0088     -0.0012      0.0101      0.0067

 Excitation energies and oscillator strengths:
 
 Excited State   1:      Singlet-A      2.9437 eV  421.18 nm  f=0.1935  <S**2>=0.000
      52 -> 53         0.70162
 
 Excited State   2:      Singlet-A      3.9305 eV  315.44 nm  f=0.0003  <S**2>=0.000
      50 -> 54         0.16639
      51 -> 53         0.58797
      51 -> 54         0.31501
 This state for optimization and/or second-order correction.
 Total Energy, E(TD-HF/TD-DFT) =  -633.176409302    
 Copying the excited state density for this state as the 1-particle RhoCI density.
 
 Excited State   3:      Singlet-A      4.0989 eV  302.48 nm  f=0.0015  <S**2>=0.000
      49 -> 53         0.26460
      49 -> 54        -0.15171
      50 -> 53         0.53155
      50 -> 54        -0.24234
      50 -> 58         0.11127
      51 -> 54         0.19504
 
 Excited State   4:      Singlet-A      4.8497 eV  255.66 nm  f=0.3557  <S**2>=0.000
      52 -> 54         0.69653
 
 Excited State   5:      Singlet-A      5.2939 eV  234.20 nm  f=0.3114  <S**2>=0.000
      49 -> 53         0.61227
      50 -> 53        -0.30927
 
 Excited State   6:      Singlet-A      5.7602 eV  215.24 nm  f=0.0064  <S**2>=0.000
      52 -> 55         0.64817
      52 -> 56         0.17145
      52 -> 57         0.12363
 SavETr:  write IOETrn=   770 NScale= 10 NData=  16 NLR=1 NState=    6 LETran=     118.
 The selected state is a singlet.
 CISGrd: IGrad=1 NXY=2 DFT=T
 CISAX will form     1 AO SS matrices at one time.
 NMat=     1 NSing=     1 JSym2X= 0.
 Leave Link  914 at Fri Jan 23 17:47:02 2026, MaxMem=  2147483648 cpu:            7707.3 elap:             483.3
 (Enter /data/home/wyx/g16/l1002.exe)
 Minotr:  Closed shell wavefunction.
          Computing CIS/TDA/TD derivatives.
          Using Z-Vector for PSCF gradient.
          Skipping F1 and S1 gradient terms here.
 NEqPCM:  Using equilibrium solvation (IEInf=0, Eps=   7.4257, EpsInf=   1.9740)
          Frozen-core window.
          Direct CPHF calculation.
          Differentiating once with respect to electric field.
                with respect to dipole field.
          Electric field/nuclear overlap derivatives assumed to be zero.
          Requested convergence is 1.0D-10 RMS, and 1.0D-09 maximum.
          NewPWx=F KeepS1=T KeepF1=T KeepIn=T MapXYZ=F SortEE=F KeepMc=T.
 Two-electron integral symmetry used by symmetrizing perturbed Fock matrices.
          MDV=    2147483648 using IRadAn=       5.
          Solving linear equations separately, MaxMat=     384.
          There are     1 degrees of freedom in the 1st order CPHF.  IDoFFX=0 NUNeed=     1.
 FoFJK:  IHMeth= 1 ICntrl=       0 DoSepK=T KAlg= 0 I1Cent=           0 FoldK=F
 IRaf=         1 NMat=       1 IRICut=       1 DoRegI=T DoRafI=F ISym2E=-1 IDoP0=0 IntGTp=1.
 FoFCou: FMM=F IPFlag=           0 FMFlag=      100000 FMFlg1=           0
         NFxFlg=           0 DoJE=T BraDBF=F KetDBF=F FulRan=T
         wScrn=  0.000000 ICntrl=       500 IOpCl=  0 I1Cent=           0 NGrid=           0
         NMat0=    1 NMatS0=      1 NMatT0=    0 NMatD0=    1 NMtDS0=    0 NMtDT0=    0
 Petite list used in FoFCou.
 LinEq1:  Iter=  0 NonCon=     1 RMS=8.37D-03 Max=3.84D-01 NDo=     1
 AX will form     1 AO Fock derivatives at one time.
 LinEq1:  Iter=  1 NonCon=     1 RMS=2.31D-03 Max=1.12D-01 NDo=     1
 LinEq1:  Iter=  2 NonCon=     1 RMS=1.62D-03 Max=9.55D-02 NDo=     1
 LinEq1:  Iter=  3 NonCon=     1 RMS=6.77D-04 Max=3.66D-02 NDo=     1
 LinEq1:  Iter=  4 NonCon=     1 RMS=3.58D-04 Max=1.36D-02 NDo=     1
 LinEq1:  Iter=  5 NonCon=     1 RMS=1.87D-04 Max=9.86D-03 NDo=     1
 LinEq1:  Iter=  6 NonCon=     1 RMS=9.63D-05 Max=3.26D-03 NDo=     1
 LinEq1:  Iter=  7 NonCon=     1 RMS=5.83D-05 Max=2.73D-03 NDo=     1
 LinEq1:  Iter=  8 NonCon=     1 RMS=2.77D-05 Max=9.82D-04 NDo=     1
 LinEq1:  Iter=  9 NonCon=     1 RMS=2.01D-05 Max=9.47D-04 NDo=     1
 LinEq1:  Iter= 10 NonCon=     1 RMS=8.48D-06 Max=2.32D-04 NDo=     1
 LinEq1:  Iter= 11 NonCon=     1 RMS=4.65D-06 Max=1.59D-04 NDo=     1
 LinEq1:  Iter= 12 NonCon=     1 RMS=1.42D-06 Max=4.30D-05 NDo=     1
 LinEq1:  Iter= 13 NonCon=     1 RMS=6.86D-07 Max=1.75D-05 NDo=     1
 LinEq1:  Iter= 14 NonCon=     1 RMS=2.47D-07 Max=6.61D-06 NDo=     1
 LinEq1:  Iter= 15 NonCon=     1 RMS=9.88D-08 Max=1.84D-06 NDo=     1
 LinEq1:  Iter= 16 NonCon=     1 RMS=3.49D-08 Max=1.18D-06 NDo=     1
 LinEq1:  Iter= 17 NonCon=     1 RMS=1.31D-08 Max=6.15D-07 NDo=     1
 LinEq1:  Iter= 18 NonCon=     1 RMS=5.72D-09 Max=2.57D-07 NDo=     1
 LinEq1:  Iter= 19 NonCon=     1 RMS=1.91D-09 Max=6.18D-08 NDo=     1
 LinEq1:  Iter= 20 NonCon=     1 RMS=6.20D-10 Max=1.93D-08 NDo=     1
 LinEq1:  Iter= 21 NonCon=     1 RMS=2.69D-10 Max=5.41D-09 NDo=     1
 LinEq1:  Iter= 22 NonCon=     1 RMS=9.84D-11 Max=2.29D-09 NDo=     1
 LinEq1:  Iter= 23 NonCon=     0 RMS=2.39D-11 Max=4.32D-10 NDo=     1
 Linear equations converged to 1.000D-10 1.000D-09 after    23 iterations.
 PCM Corrected Linear-Response - Equilibrium solvation:
 Corrected transition energy               =    3.8487          eV
 Total energy after correction             = -633.179412533     a.u.
 NEqPCM:  Using non-equilibrium solvation (IEInf=1, Eps=   7.4257, EpsInf=   1.9740)
 Inv3:  Mode=1 IEnd=    13154508.
 Iteration    1 A*A^-1 deviation from unit magnitude is 3.22D-15 for    228.
 Iteration    1 A*A^-1 deviation from orthogonality  is 1.74D-15 for   2001    798.
 Iteration    1 A^-1*A deviation from unit magnitude is 3.11D-15 for   1122.
 Iteration    1 A^-1*A deviation from orthogonality  is 2.23D-15 for   1392   1339.
 NEqSol: Computing the dynamic-inertial partition of the PCM polarization charges.
 End of Minotr F.D. properties file   721 does not exist.
 End of Minotr F.D. properties file   722 does not exist.
 End of Minotr F.D. properties file   788 does not exist.
 Leave Link 1002 at Fri Jan 23 17:49:04 2026, MaxMem=  2147483648 cpu:            1907.7 elap:             121.5
 (Enter /data/home/wyx/g16/l601.exe)
 Copying SCF densities to generalized density rwf, IOpCl= 0 IROHF=0.

 **********************************************************************

            Population analysis using the CI density.

 **********************************************************************

 Orbital symmetries:
       Occupied  (A) (A) (A) (A) (A) (A) (A) (A) (A) (A) (A) (A)
                 (A) (A) (A) (A) (A) (A) (A) (A) (A) (A) (A) (A)
                 (A) (A) (A) (A) (A) (A) (A) (A) (A) (A) (A) (A)
                 (A) (A) (A) (A) (A) (A) (A) (A) (A) (A) (A) (A)
                 (A) (A) (A) (A)
       Virtual   (A) (A) (A) (A) (A) (A) (A) (A) (A) (A) (A) (A)
                 (A) (A) (A) (A) (A) (A) (A) (A) (A) (A) (A) (A)
                 (A) (A) (A) (A) (A) (A) (A) (A) (A) (A) (A) (A)
                 (A) (A) (A) (A) (A) (A) (A) (A) (A) (A) (A) (A)
                 (A) (A) (A) (A) (A) (A) (A) (A) (A) (A) (A) (A)
                 (A) (A) (A) (A) (A) (A) (A) (A) (A) (A) (A) (A)
                 (A) (A) (A) (A) (A) (A) (A) (A) (A) (A) (A) (A)
                 (A) (A) (A) (A) (A) (A) (A) (A) (A) (A) (A) (A)
                 (A) (A) (A) (A) (A) (A) (A) (A) (A) (A) (A) (A)
                 (A) (A) (A) (A) (A) (A) (A) (A) (A) (A) (A) (A)
                 (A) (A) (A) (A) (A) (A) (A) (A) (A) (A) (A) (A)
                 (A) (A) (A) (A) (A) (A) (A) (A) (A) (A) (A) (A)
                 (A) (A) (A) (A) (A) (A) (A) (A) (A) (A) (A) (A)
                 (A) (A) (A) (A) (A) (A) (A) (A) (A) (A) (A) (A)
                 (A) (A) (A) (A) (A) (A) (A) (A) (A) (A) (A) (A)
                 (A) (A) (A) (A) (A) (A) (A) (A) (A) (A) (A) (A)
                 (A) (A) (A) (A) (A) (A) (A) (A) (A) (A) (A) (A)
                 (A) (A) (A) (A) (A) (A) (A) (A) (A) (A) (A) (A)
                 (A) (A) (A) (A) (A) (A) (A) (A) (A) (A) (A) (A)
                 (A) (A) (A) (A) (A) (A) (A) (A) (A) (A) (A) (A)
                 (A) (A) (A) (A) (A) (A) (A) (A) (A) (A) (A) (A)
                 (A) (A) (A) (A) (A) (A) (A) (A) (A) (A) (A) (A)
                 (A) (A) (A) (A) (A) (A) (A) (A) (A) (A) (A) (A)
                 (A) (A) (A) (A) (A) (A) (A) (A) (A) (A) (A) (A)
                 (A) (A) (A) (A) (A) (A) (A) (A) (A) (A) (A) (A)
                 (A) (A) (A) (A)
 The electronic state is 1-A.
 Alpha  occ. eigenvalues --  -19.17798 -19.16904 -14.44800 -10.33353 -10.32852
 Alpha  occ. eigenvalues --  -10.32777 -10.32221 -10.26248 -10.25409 -10.25086
 Alpha  occ. eigenvalues --  -10.24695 -10.24452 -10.24221 -10.23613  -1.11396
 Alpha  occ. eigenvalues --   -1.10826  -1.08488  -0.91455  -0.90528  -0.83960
 Alpha  occ. eigenvalues --   -0.82691  -0.81689  -0.78542  -0.73860  -0.72173
 Alpha  occ. eigenvalues --   -0.68706  -0.61588  -0.58315  -0.57035  -0.55169
 Alpha  occ. eigenvalues --   -0.54668  -0.54009  -0.52513  -0.51790  -0.50875
 Alpha  occ. eigenvalues --   -0.49719  -0.49514  -0.49282  -0.48696  -0.48032
 Alpha  occ. eigenvalues --   -0.47235  -0.45288  -0.45136  -0.43992  -0.43293
 Alpha  occ. eigenvalues --   -0.42140  -0.42138  -0.41508  -0.32607  -0.32161
 Alpha  occ. eigenvalues --   -0.31116  -0.25139
 Alpha virt. eigenvalues --   -0.03263   0.02551   0.06222   0.08015   0.08384
 Alpha virt. eigenvalues --    0.09739   0.10715   0.11532   0.12510   0.13392
 Alpha virt. eigenvalues --    0.13849   0.14821   0.15561   0.16361   0.16934
 Alpha virt. eigenvalues --    0.17462   0.17831   0.18055   0.18418   0.19226
 Alpha virt. eigenvalues --    0.19844   0.21985   0.22731   0.23465   0.23822
 Alpha virt. eigenvalues --    0.23986   0.24730   0.25628   0.26291   0.26682
 Alpha virt. eigenvalues --    0.27330   0.28021   0.28497   0.29439   0.30138
 Alpha virt. eigenvalues --    0.31618   0.31889   0.32320   0.33404   0.34231
 Alpha virt. eigenvalues --    0.34702   0.35810   0.36694   0.37723   0.38518
 Alpha virt. eigenvalues --    0.39664   0.40985   0.41357   0.41816   0.42465
 Alpha virt. eigenvalues --    0.43988   0.44805   0.45553   0.46204   0.46468
 Alpha virt. eigenvalues --    0.47288   0.47724   0.47889   0.48430   0.49166
 Alpha virt. eigenvalues --    0.49593   0.50564   0.51223   0.51392   0.51548
 Alpha virt. eigenvalues --    0.52595   0.52686   0.53284   0.53680   0.54200
 Alpha virt. eigenvalues --    0.54356   0.55300   0.55877   0.56674   0.58203
 Alpha virt. eigenvalues --    0.58427   0.59955   0.61033   0.61704   0.63054
 Alpha virt. eigenvalues --    0.64094   0.65087   0.66424   0.66847   0.67598
 Alpha virt. eigenvalues --    0.68705   0.69364   0.70737   0.71178   0.72080
 Alpha virt. eigenvalues --    0.73036   0.74617   0.75083   0.75990   0.77641
 Alpha virt. eigenvalues --    0.79058   0.80479   0.83292   0.86560   0.87460
 Alpha virt. eigenvalues --    0.91353   0.95566   1.02312   1.04219   1.22053
 Alpha virt. eigenvalues --    1.24377   1.27299   1.28383   1.29034   1.30375
 Alpha virt. eigenvalues --    1.31999   1.33067   1.34465   1.35047   1.36281
 Alpha virt. eigenvalues --    1.36699   1.37793   1.38429   1.38862   1.39616
 Alpha virt. eigenvalues --    1.39893   1.40228   1.40788   1.41314   1.42010
 Alpha virt. eigenvalues --    1.43321   1.43467   1.44221   1.45431   1.47301
 Alpha virt. eigenvalues --    1.48035   1.49450   1.49970   1.50276   1.50540
 Alpha virt. eigenvalues --    1.51344   1.52192   1.52857   1.55458   1.58577
 Alpha virt. eigenvalues --    1.59462   1.60145   1.60913   1.61609   1.62406
 Alpha virt. eigenvalues --    1.62633   1.63012   1.63602   1.64471   1.65768
 Alpha virt. eigenvalues --    1.66416   1.67008   1.67532   1.67947   1.68629
 Alpha virt. eigenvalues --    1.69057   1.69800   1.70143   1.71065   1.72456
 Alpha virt. eigenvalues --    1.74160   1.74757   1.75602   1.76561   1.78502
 Alpha virt. eigenvalues --    1.81419   1.82858   1.83859   1.85751   1.86529
 Alpha virt. eigenvalues --    1.86544   1.87966   1.88648   1.89023   1.90173
 Alpha virt. eigenvalues --    1.91272   1.94430   1.95049   1.99053   1.99715
 Alpha virt. eigenvalues --    2.01553   2.03869   2.05650   2.06810   2.09475
 Alpha virt. eigenvalues --    2.10241   2.11679   2.15714   2.17459   2.19650
 Alpha virt. eigenvalues --    2.20375   2.21215   2.22103   2.22955   2.26393
 Alpha virt. eigenvalues --    2.27050   2.27456   2.29263   2.31214   2.32303
 Alpha virt. eigenvalues --    2.33706   2.34358   2.36874   2.37877   2.39201
 Alpha virt. eigenvalues --    2.39395   2.40266   2.41408   2.42775   2.45053
 Alpha virt. eigenvalues --    2.45775   2.47783   2.49008   2.49690   2.51265
 Alpha virt. eigenvalues --    2.52447   2.54166   2.54600   2.56396   2.57441
 Alpha virt. eigenvalues --    2.58708   2.60877   2.61871   2.62465   2.63366
 Alpha virt. eigenvalues --    2.64707   2.65551   2.66548   2.67419   2.68392
 Alpha virt. eigenvalues --    2.71669   2.71984   2.73847   2.74771   2.75257
 Alpha virt. eigenvalues --    2.76605   2.76918   2.77430   2.78238   2.78890
 Alpha virt. eigenvalues --    2.80698   2.81760   2.83124   2.83871   2.85028
 Alpha virt. eigenvalues --    2.85476   2.86418   2.88848   2.89101   2.92036
 Alpha virt. eigenvalues --    2.97387   2.98766   3.00938   3.06877   3.10734
 Alpha virt. eigenvalues --    3.12274   3.14297   3.17962   3.19140   3.21445
 Alpha virt. eigenvalues --    3.22231   3.23515   3.25148   3.25844   3.26605
 Alpha virt. eigenvalues --    3.28840   3.30250   3.32438   3.34598   3.36578
 Alpha virt. eigenvalues --    3.38156   3.38770   3.39399   3.39630   3.41689
 Alpha virt. eigenvalues --    3.42061   3.44003   3.44942   3.47699   3.48434
 Alpha virt. eigenvalues --    3.49670   3.50155   3.55866   3.58421   3.59997
 Alpha virt. eigenvalues --    3.61254   3.91055   4.00751   4.33252   4.36274
 Alpha virt. eigenvalues --   21.67866  21.80801  22.08046  22.10338  22.11619
 Alpha virt. eigenvalues --   22.14816  22.15129  22.18020  22.19241  22.25025
 Alpha virt. eigenvalues --   22.27513  31.91434  43.64017  43.66844
          Condensed to atoms (all electrons):
               1          2          3          4          5          6
     1  O    7.959323   0.000000  -0.000169   0.000020   0.019360   0.010086
     2  O    0.000000   7.974197   0.000761   0.000023  -0.101860   0.000300
     3  N   -0.000169   0.000761   6.354051   0.368345  -0.094918   0.384009
     4  H    0.000020   0.000023   0.368345   0.423524   0.017108  -0.046615
     5  C    0.019360  -0.101860  -0.094918   0.017108   6.107156  -0.087601
     6  C    0.010086   0.000300   0.384009  -0.046615  -0.087601   5.566719
     7  C   -0.000322   0.002625   0.336375  -0.039226   0.338170  -0.131228
     8  C   -0.000352   0.319689   0.014239  -0.001105   0.319812   0.018537
     9  C   -0.003010   0.012352   0.005524   0.000137  -0.462825  -0.047448
    10  H    0.009459   0.000015  -0.001012   0.000028  -0.106595   0.027132
    11  H    0.009141  -0.000014   0.003923   0.000043  -0.063362  -0.019756
    12  C   -0.242561  -0.001060  -0.098454   0.015642   0.186388  -0.063174
    13  C    0.702296   0.000035   0.000955   0.000600   0.085586   0.112529
    14  C   -0.000007   0.013952  -0.029675  -0.009821  -0.098934   0.014113
    15  H    0.000000   0.000796   0.004285   0.003065   0.017818   0.003884
    16  H    0.000000  -0.002887  -0.000152   0.000683   0.001743  -0.001628
    17  H   -0.000000  -0.002251  -0.001394   0.000765   0.000073  -0.000978
    18  C    0.000360  -0.048857  -0.000307   0.000019  -0.017318  -0.000523
    19  H   -0.000001   0.001589  -0.000002  -0.000001   0.012336   0.000102
    20  H    0.000065   0.002313   0.000038   0.000001  -0.010261  -0.000558
    21  H   -0.000087   0.002733  -0.000022  -0.000000  -0.022309  -0.000081
    22  C   -0.105003   0.000000  -0.000232   0.000126   0.004118  -0.022103
    23  H    0.001898  -0.000000   0.000019  -0.000012  -0.000026   0.008696
    24  H    0.005115  -0.000000   0.000211  -0.000057  -0.000741  -0.023004
    25  H    0.007059  -0.000000   0.000028  -0.000003  -0.000153  -0.000901
    26  C    0.000664   0.000003  -0.028075  -0.007460  -0.002217   0.185322
    27  H   -0.000052   0.000000  -0.003432   0.000562   0.000429  -0.034248
    28  H   -0.000308   0.000000   0.000574   0.000721  -0.000070  -0.059657
    29  H    0.000025  -0.000000   0.002011   0.002361  -0.000319  -0.047296
               7          8          9         10         11         12
     1  O   -0.000322  -0.000352  -0.003010   0.009459   0.009141  -0.242561
     2  O    0.002625   0.319689   0.012352   0.000015  -0.000014  -0.001060
     3  N    0.336375   0.014239   0.005524  -0.001012   0.003923  -0.098454
     4  H   -0.039226  -0.001105   0.000137   0.000028   0.000043   0.015642
     5  C    0.338170   0.319812  -0.462825  -0.106595  -0.063362   0.186388
     6  C   -0.131228   0.018537  -0.047448   0.027132  -0.019756  -0.063174
     7  C    5.489452  -0.131315  -0.070595   0.014924  -0.009574  -0.011613
     8  C   -0.131315   5.342184  -0.007056  -0.014249  -0.000104  -0.015035
     9  C   -0.070595  -0.007056   6.364767   0.532671   0.417544  -0.201404
    10  H    0.014924  -0.014249   0.532671   0.545957  -0.054304  -0.113705
    11  H   -0.009574  -0.000104   0.417544  -0.054304   0.588389  -0.005978
    12  C   -0.011613  -0.015035  -0.201404  -0.113705  -0.005978   7.451903
    13  C    0.013266  -0.004422  -0.246570   0.000458  -0.004983  -0.449639
    14  C    0.228884  -0.015207   0.014436   0.000475  -0.000742  -0.004215
    15  H   -0.063043   0.000716  -0.000713  -0.000000   0.000042  -0.000357
    16  H   -0.052524  -0.008678  -0.000880  -0.000057   0.000174   0.000690
    17  H   -0.046064  -0.007210   0.000899   0.000066  -0.000062   0.000112
    18  C    0.011271   0.203091  -0.034048   0.010532  -0.016301  -0.001945
    19  H   -0.000623  -0.050553   0.001759   0.000698  -0.000317  -0.000974
    20  H    0.001024  -0.036532   0.007745  -0.007951   0.003808   0.002874
    21  H   -0.000200  -0.045126  -0.006868  -0.001189   0.001478   0.002345
    22  C    0.000026   0.000001   0.004587  -0.001411   0.003766  -0.252087
    23  H    0.000006  -0.000001  -0.002688  -0.000147   0.000200  -0.010985
    24  H   -0.000029   0.000005   0.002751   0.000086  -0.000223   0.063898
    25  H    0.000014  -0.000000   0.000957   0.000004  -0.000139   0.019224
    26  C    0.004996   0.000361   0.029306   0.000196  -0.001034  -0.095859
    27  H   -0.000158  -0.000020  -0.001895   0.000037   0.000007  -0.014241
    28  H   -0.000707  -0.000004   0.001900   0.000023  -0.000154  -0.004701
    29  H    0.003196  -0.000006  -0.001033  -0.000017   0.000097   0.022247
              13         14         15         16         17         18
     1  O    0.702296  -0.000007   0.000000   0.000000  -0.000000   0.000360
     2  O    0.000035   0.013952   0.000796  -0.002887  -0.002251  -0.048857
     3  N    0.000955  -0.029675   0.004285  -0.000152  -0.001394  -0.000307
     4  H    0.000600  -0.009821   0.003065   0.000683   0.000765   0.000019
     5  C    0.085586  -0.098934   0.017818   0.001743   0.000073  -0.017318
     6  C    0.112529   0.014113   0.003884  -0.001628  -0.000978  -0.000523
     7  C    0.013266   0.228884  -0.063043  -0.052524  -0.046064   0.011271
     8  C   -0.004422  -0.015207   0.000716  -0.008678  -0.007210   0.203091
     9  C   -0.246570   0.014436  -0.000713  -0.000880   0.000899  -0.034048
    10  H    0.000458   0.000475  -0.000000  -0.000057   0.000066   0.010532
    11  H   -0.004983  -0.000742   0.000042   0.000174  -0.000062  -0.016301
    12  C   -0.449639  -0.004215  -0.000357   0.000690   0.000112  -0.001945
    13  C    5.571911  -0.000072   0.000003   0.000004  -0.000005   0.001226
    14  C   -0.000072   5.085741   0.399564   0.438025   0.428790   0.001741
    15  H    0.000003   0.399564   0.545106  -0.022471  -0.021810   0.000010
    16  H    0.000004   0.438025  -0.022471   0.519084  -0.035543  -0.000358
    17  H   -0.000005   0.428790  -0.021810  -0.035543   0.519564  -0.000483
    18  C    0.001226   0.001741   0.000010  -0.000358  -0.000483   5.083649
    19  H   -0.000047   0.000069   0.000003   0.000005   0.000023   0.396861
    20  H    0.000234  -0.000151  -0.000002  -0.000003   0.000023   0.407204
    21  H   -0.000036  -0.000290   0.000000   0.000023  -0.000025   0.426970
    22  C    0.276072  -0.000011   0.000002  -0.000000  -0.000000   0.000002
    23  H   -0.026861  -0.000001   0.000000   0.000000   0.000000  -0.000002
    24  H   -0.098237   0.000003  -0.000000  -0.000000   0.000000   0.000001
    25  H   -0.034569   0.000000  -0.000000  -0.000000  -0.000000   0.000001
    26  C   -0.051035   0.000714   0.000076  -0.000014  -0.000049   0.000016
    27  H    0.006333  -0.000119  -0.000001   0.000004  -0.000008  -0.000001
    28  H   -0.001539   0.000046  -0.000009  -0.000002   0.000001   0.000002
    29  H   -0.001113  -0.000125   0.000087  -0.000003   0.000001  -0.000001
              19         20         21         22         23         24
     1  O   -0.000001   0.000065  -0.000087  -0.105003   0.001898   0.005115
     2  O    0.001589   0.002313   0.002733   0.000000  -0.000000  -0.000000
     3  N   -0.000002   0.000038  -0.000022  -0.000232   0.000019   0.000211
     4  H   -0.000001   0.000001  -0.000000   0.000126  -0.000012  -0.000057
     5  C    0.012336  -0.010261  -0.022309   0.004118  -0.000026  -0.000741
     6  C    0.000102  -0.000558  -0.000081  -0.022103   0.008696  -0.023004
     7  C   -0.000623   0.001024  -0.000200   0.000026   0.000006  -0.000029
     8  C   -0.050553  -0.036532  -0.045126   0.000001  -0.000001   0.000005
     9  C    0.001759   0.007745  -0.006868   0.004587  -0.002688   0.002751
    10  H    0.000698  -0.007951  -0.001189  -0.001411  -0.000147   0.000086
    11  H   -0.000317   0.003808   0.001478   0.003766   0.000200  -0.000223
    12  C   -0.000974   0.002874   0.002345  -0.252087  -0.010985   0.063898
    13  C   -0.000047   0.000234  -0.000036   0.276072  -0.026861  -0.098237
    14  C    0.000069  -0.000151  -0.000290  -0.000011  -0.000001   0.000003
    15  H    0.000003  -0.000002   0.000000   0.000002   0.000000  -0.000000
    16  H    0.000005  -0.000003   0.000023  -0.000000   0.000000  -0.000000
    17  H    0.000023   0.000023  -0.000025  -0.000000   0.000000   0.000000
    18  C    0.396861   0.407204   0.426970   0.000002  -0.000002   0.000001
    19  H    0.528179  -0.019879  -0.032139  -0.000001  -0.000000   0.000000
    20  H   -0.019879   0.506916  -0.033717   0.000022   0.000000  -0.000000
    21  H   -0.032139  -0.033717   0.526373   0.000003   0.000000  -0.000000
    22  C   -0.000001   0.000022   0.000003   5.434478   0.404232   0.395037
    23  H   -0.000000   0.000000   0.000000   0.404232   0.505585  -0.028713
    24  H    0.000000  -0.000000  -0.000000   0.395037  -0.028713   0.551658
    25  H    0.000000   0.000000  -0.000001   0.378922  -0.010660  -0.021979
    26  C    0.000001  -0.000006  -0.000005  -0.034902  -0.010039   0.015160
    27  H   -0.000000  -0.000000   0.000001  -0.009682   0.001234  -0.002620
    28  H    0.000000   0.000000  -0.000000   0.002106  -0.001085  -0.006468
    29  H   -0.000000   0.000000   0.000000   0.002152   0.000181   0.000587
              25         26         27         28         29
     1  O    0.007059   0.000664  -0.000052  -0.000308   0.000025
     2  O   -0.000000   0.000003   0.000000   0.000000  -0.000000
     3  N    0.000028  -0.028075  -0.003432   0.000574   0.002011
     4  H   -0.000003  -0.007460   0.000562   0.000721   0.002361
     5  C   -0.000153  -0.002217   0.000429  -0.000070  -0.000319
     6  C   -0.000901   0.185322  -0.034248  -0.059657  -0.047296
     7  C    0.000014   0.004996  -0.000158  -0.000707   0.003196
     8  C   -0.000000   0.000361  -0.000020  -0.000004  -0.000006
     9  C    0.000957   0.029306  -0.001895   0.001900  -0.001033
    10  H    0.000004   0.000196   0.000037   0.000023  -0.000017
    11  H   -0.000139  -0.001034   0.000007  -0.000154   0.000097
    12  C    0.019224  -0.095859  -0.014241  -0.004701   0.022247
    13  C   -0.034569  -0.051035   0.006333  -0.001539  -0.001113
    14  C    0.000000   0.000714  -0.000119   0.000046  -0.000125
    15  H   -0.000000   0.000076  -0.000001  -0.000009   0.000087
    16  H   -0.000000  -0.000014   0.000004  -0.000002  -0.000003
    17  H   -0.000000  -0.000049  -0.000008   0.000001   0.000001
    18  C    0.000001   0.000016  -0.000001   0.000002  -0.000001
    19  H    0.000000   0.000001  -0.000000   0.000000  -0.000000
    20  H    0.000000  -0.000006  -0.000000   0.000000   0.000000
    21  H   -0.000001  -0.000005   0.000001  -0.000000   0.000000
    22  C    0.378922  -0.034902  -0.009682   0.002106   0.002152
    23  H   -0.010660  -0.010039   0.001234  -0.001085   0.000181
    24  H   -0.021979   0.015160  -0.002620  -0.006468   0.000587
    25  H    0.502592   0.002026   0.000010   0.000733  -0.000041
    26  C    0.002026   5.252502   0.420833   0.440515   0.385990
    27  H    0.000010   0.420833   0.501913  -0.033149  -0.017387
    28  H    0.000733   0.440515  -0.033149   0.519169  -0.025700
    29  H   -0.000041   0.385990  -0.017387  -0.025700   0.526035
 Mulliken charges:
               1
     1  O   -0.372999
     2  O   -0.174456
     3  N   -0.217503
     4  H    0.270525
     5  C   -0.040589
     6  C    0.255371
     7  C    0.112993
     8  C    0.118336
     9  C   -0.310303
    10  H    0.157874
    11  H    0.148436
    12  C   -0.177338
    13  C    0.147619
    14  C   -0.467186
    15  H    0.132947
    16  H    0.164765
    17  H    0.165565
    18  C   -0.422811
    19  H    0.162912
    20  H    0.176794
    21  H    0.182171
    22  C   -0.480218
    23  H    0.169168
    24  H    0.147559
    25  H    0.156876
    26  C   -0.507987
    27  H    0.185649
    28  H    0.167763
    29  H    0.148068
 Sum of Mulliken charges =  -0.00000
 Mulliken charges with hydrogens summed into heavy atoms:
               1
     1  O   -0.372999
     2  O   -0.174456
     3  N    0.053021
     5  C   -0.040589
     6  C    0.255371
     7  C    0.112993
     8  C    0.118336
     9  C   -0.003993
    12  C   -0.177338
    13  C    0.147619
    14  C   -0.003909
    18  C    0.099066
    22  C   -0.006615
    26  C   -0.006506
 Electronic spatial extent (au):  <R**2>=           3198.9716
 Charge=             -0.0000 electrons
 Dipole moment (field-independent basis, Debye):
    X=             -0.0079    Y=              6.0944    Z=              0.4533  Tot=              6.1112
 Quadrupole moment (field-independent basis, Debye-Ang):
   XX=            -86.9060   YY=            -78.4776   ZZ=            -86.3985
   XY=             15.6860   XZ=              2.7746   YZ=             -2.1749
 Traceless Quadrupole moment (field-independent basis, Debye-Ang):
   XX=             -2.9786   YY=              5.4498   ZZ=             -2.4712
   XY=             15.6860   XZ=              2.7746   YZ=             -2.1749
 Octapole moment (field-independent basis, Debye-Ang**2):
  XXX=             41.8592  YYY=             54.5591  ZZZ=              1.3394  XYY=            -43.0244
  XXY=             18.4287  XXZ=              0.5219  XZZ=              0.2871  YZZ=             -2.1096
  YYZ=              4.1599  XYZ=             -5.1071
 Hexadecapole moment (field-independent basis, Debye-Ang**3):
 XXXX=          -2843.9058 YYYY=          -1288.3292 ZZZZ=           -145.4615 XXXY=             83.2652
 XXXZ=             22.5576 YYYX=            107.3424 YYYZ=            -17.2443 ZZZX=             -4.3233
 ZZZY=              2.1129 XXYY=           -683.9065 XXZZ=           -484.1378 YYZZ=           -248.1313
 XXYZ=            -11.8593 YYXZ=             10.8619 ZZXY=              1.6646
 N-N= 8.991344319673D+02 E-N=-3.274378717584D+03  KE= 6.307280768076D+02
 No NMR shielding tensors so no spin-rotation constants.
 Leave Link  601 at Fri Jan 23 17:49:04 2026, MaxMem=  2147483648 cpu:               1.8 elap:               0.1
 (Enter /data/home/wyx/g16/l9999.exe)
 Electronic transition elements 
                 1             2             3             4             5 
      1  -0.633213D+03 -0.633176D+03 -0.633170D+03 -0.633143D+03 -0.633126D+03
      2   0.158897D+01  0.101882D-02 -0.926400D-01 -0.385469D+00  0.447922D+00
      3   0.376317D+00 -0.427448D-01  0.741339D-01  0.168306D+01 -0.148211D+01
      4   0.126492D+00  0.363969D-01 -0.349206D-01 -0.109910D+00  0.619264D-01
      5  -0.164182D+00 -0.810851D-03  0.128827D-01  0.598581D-01 -0.845302D-01
      6  -0.423041D-01  0.638705D-02 -0.923371D-02 -0.288662D+00  0.282824D+00
      7  -0.125816D-01 -0.212846D-02  0.176591D-02  0.156127D-01 -0.127555D-01
      8  -0.127442D+00  0.783837D+00  0.524308D+00 -0.322421D-01  0.103154D+00
      9  -0.349524D-01  0.155219D+00 -0.848962D+00  0.505962D-01 -0.558181D-01
     10   0.147257D+01 -0.886329D-02 -0.154885D+00 -0.729062D-01  0.293027D+00
     11  -0.161196D+00  0.301660D-01  0.401699D-02  0.118771D+01 -0.524367D+00
     12   0.244772D+00 -0.110119D-01 -0.397570D-01 -0.141462D+00  0.350960D+00
     13  -0.131820D-01 -0.144313D-01  0.304089D-01 -0.176877D-01  0.385184D-01
     14   0.454941D+00 -0.726335D-02 -0.654323D-01  0.447686D+00 -0.592604D-01
     15  -0.423640D-01 -0.134655D-01  0.545688D-01  0.543585D-01 -0.666923D-02
     16   0.219702D-01  0.748240D-01  0.240826D-01  0.536188D-01  0.143233D-01
                 6 
      1  -0.633109D+03
      2   0.589537D-01
      3  -0.202198D+00
      4  -0.350270D-01
      5  -0.128441D-01
      6   0.414034D-01
      7   0.276038D-01
      8  -0.485769D-01
      9  -0.400747D-02
     10  -0.430205D-01
     11   0.128884D+00
     12   0.128771D+00
     13  -0.109849D+00
     14  -0.406342D-02
     15   0.409460D-01
     16  -0.122557D+00
 1\1\GINC-CN012\SP\RCAM-B3LYP TD-FC\TZVP\C11H15N1O2\WYX\23-Jan-2026\0\\
 #p CAM-B3LYP TZVP em=gd3bj td(nstates=6,root=2) scrf=(Solvent=TetraHyd
 roFuran,CorrectedLR,NonEquilibrium=Save) Geom=Check Guess=Read\\Title 
 Card Required\\0,1\O,0,2.839691,-1.573384,0.037849\O,0,-3.429203,-1.64
 8793,-0.14129\N,0,-0.664952,1.517747,-0.185688\H,0,-0.976814,2.478348,
 -0.235218\C,0,-1.248428,-0.762655,-0.201081\C,0,0.678995,1.334892,-0.0
 23667\C,0,-1.63861,0.578642,-0.238255\C,0,-2.21189,-1.846455,-0.182765
 \C,0,0.194308,-1.082668,-0.190208\H,0,0.406434,-1.888397,0.521548\H,0,
 0.474092,-1.562221,-1.146582\C,0,1.147434,0.025849,0.041424\C,0,2.5179
 19,-0.401916,0.269951\C,0,-3.027428,1.105125,-0.349093\H,0,-3.024235,2
 .189528,-0.454009\H,0,-3.543492,0.675929,-1.203654\H,0,-3.619066,0.845
 626,0.525216\C,0,-1.708565,-3.268057,-0.185138\H,0,-2.516063,-3.926818
 ,-0.488508\H,0,-0.858139,-3.42479,-0.842902\H,0,-1.398197,-3.560573,0.
 818638\C,0,3.566365,0.527674,0.831886\H,0,4.0722,1.06698,0.028207\H,0,
 3.163894,1.257182,1.529871\H,0,4.31009,-0.083283,1.33901\C,0,1.469592,
 2.600083,0.025453\H,0,1.716045,2.895922,1.046065\H,0,2.400273,2.510419
 ,-0.526187\H,0,0.90775,3.420064,-0.420871\\Version=ES64L-G16RevA.03\St
 ate=1-A\HF=-633.3208514\RMSD=3.620e-09\Dipole=-0.8218364,2.2584078,0.0
 707146\Quadrupole=-9.3428569,10.7146031,-1.3717463,7.1199792,1.5898415
 ,-0.124155\PG=C01 [X(C11H15N1O2)]\\@


 I LOVE THOSE WHO LONG FOR THE IMPOSSIBLE.

                                 -- GOETHE
 Job cpu time:       0 days  2 hours 41 minutes 53.0 seconds.
 Elapsed time:       0 days  0 hours 10 minutes 11.5 seconds.
 File lengths (MBytes):  RWF=    734 Int=      0 D2E=      0 Chk=     67 Scr=      1
 Normal termination of Gaussian 16 at Fri Jan 23 17:49:07 2026.
