 Entering Gaussian System, Link 0=g16
 Input=DDL-LR-0.gjf
 Output=DDL-LR-0.log
 Initial command:
 /data/home/wyx/g16/l1.exe "/scr/tmp/wyx/13106/Gau-1960902.inp" -scrdir="/scr/tmp/wyx/13106/"
 Entering Link 1 = /data/home/wyx/g16/l1.exe PID=   1960903.
  
 Copyright (c) 1988,1990,1992,1993,1995,1998,2003,2009,2016,
            Gaussian, Inc.  All Rights Reserved.
  
 This is part of the Gaussian(R) 16 program.  It is based on
 the Gaussian(R) 09 system (copyright 2009, Gaussian, Inc.),
 the Gaussian(R) 03 system (copyright 2003, Gaussian, Inc.),
 the Gaussian(R) 98 system (copyright 1998, Gaussian, Inc.),
 the Gaussian(R) 94 system (copyright 1995, Gaussian, Inc.),
 the Gaussian 92(TM) system (copyright 1992, Gaussian, Inc.),
 the Gaussian 90(TM) system (copyright 1990, Gaussian, Inc.),
 the Gaussian 88(TM) system (copyright 1988, Gaussian, Inc.),
 the Gaussian 86(TM) system (copyright 1986, Carnegie Mellon
 University), and the Gaussian 82(TM) system (copyright 1983,
 Carnegie Mellon University). Gaussian is a federally registered
 trademark of Gaussian, Inc.
  
 This software contains proprietary and confidential information,
 including trade secrets, belonging to Gaussian, Inc.
  
 This software is provided under written license and may be
 used, copied, transmitted, or stored only in accord with that
 written license.
  
 The following legend is applicable only to US Government
 contracts under FAR:
  
                    RESTRICTED RIGHTS LEGEND
  
 Use, reproduction and disclosure by the US Government is
 subject to restrictions as set forth in subparagraphs (a)
 and (c) of the Commercial Computer Software - Restricted
 Rights clause in FAR 52.227-19.
  
 Gaussian, Inc.
 340 Quinnipiac St., Bldg. 40, Wallingford CT 06492
  
  
 ---------------------------------------------------------------
 Warning -- This program may not be used in any manner that
 competes with the business of Gaussian, Inc. or will provide
 assistance to any competitor of Gaussian, Inc.  The licensee
 of this program is prohibited from giving any competitor of
 Gaussian, Inc. access to this program.  By using this program,
 the user acknowledges that Gaussian, Inc. is engaged in the
 business of creating and licensing software in the field of
 computational chemistry and represents and warrants to the
 licensee that it is not a competitor of Gaussian, Inc. and that
 it will not use this program in any manner prohibited above.
 ---------------------------------------------------------------
  

 Cite this work as:
 Gaussian 16, Revision A.03,
 M. J. Frisch, G. W. Trucks, H. B. Schlegel, G. E. Scuseria, 
 M. A. Robb, J. R. Cheeseman, G. Scalmani, V. Barone, 
 G. A. Petersson, H. Nakatsuji, X. Li, M. Caricato, A. V. Marenich, 
 J. Bloino, B. G. Janesko, R. Gomperts, B. Mennucci, H. P. Hratchian, 
 J. V. Ortiz, A. F. Izmaylov, J. L. Sonnenberg, D. Williams-Young, 
 F. Ding, F. Lipparini, F. Egidi, J. Goings, B. Peng, A. Petrone, 
 T. Henderson, D. Ranasinghe, V. G. Zakrzewski, J. Gao, N. Rega, 
 G. Zheng, W. Liang, M. Hada, M. Ehara, K. Toyota, R. Fukuda, 
 J. Hasegawa, M. Ishida, T. Nakajima, Y. Honda, O. Kitao, H. Nakai, 
 T. Vreven, K. Throssell, J. A. Montgomery, Jr., J. E. Peralta, 
 F. Ogliaro, M. J. Bearpark, J. J. Heyd, E. N. Brothers, K. N. Kudin, 
 V. N. Staroverov, T. A. Keith, R. Kobayashi, J. Normand, 
 K. Raghavachari, A. P. Rendell, J. C. Burant, S. S. Iyengar, 
 J. Tomasi, M. Cossi, J. M. Millam, M. Klene, C. Adamo, R. Cammi, 
 J. W. Ochterski, R. L. Martin, K. Morokuma, O. Farkas, 
 J. B. Foresman, and D. J. Fox, Gaussian, Inc., Wallingford CT, 2016.
 
 ******************************************
 Gaussian 16:  ES64L-G16RevA.03 25-Dec-2016
                23-Jan-2026 
 ******************************************
 %nprocshared=16
 Will use up to   16 processors via shared memory.
 %mem=16GB
 %chk=DDL-LR-0.chk
 ----------------------------------------------------------------------
 #p CAM-B3LYP TZVP em=gd3bj td(nstates=6,root=1) scrf=(Solvent=TetraHyd
 roFuran)
 ----------------------------------------------------------------------
 1/38=1,172=1/1;
 2/12=2,17=6,18=5,40=1/2;
 3/5=19,7=101,11=9,25=1,30=1,70=2201,72=20,74=-40,124=41/1,2,3,8;
 4//1;
 5/5=2,38=5,53=20/2;
 8/6=1,10=1,107=1,108=6/1;
 9/8=1,41=6,42=1,70=2/14;
 6/7=2,8=2,9=2,10=2/1;
 99/5=1,9=1/99;
 Leave Link    1 at Fri Jan 23 15:04:13 2026, MaxMem=  2147483648 cpu:               0.4 elap:               0.1
 (Enter /data/home/wyx/g16/l101.exe)
 -------------------
 Title Card Required
 -------------------
 Symbolic Z-matrix:
 Charge =  0 Multiplicity = 1
 O                     2.84036  -1.57557   0.00688 
 O                    -3.43046  -1.65648  -0.20057 
 N                    -0.67326   1.51926  -0.13656 
 H                    -0.9858    2.48091  -0.18482 
 C                    -1.25108  -0.76442  -0.19501 
 C                     0.67303   1.34496  -0.00116 
 C                    -1.64654   0.58775  -0.22348 
 C                    -2.20844  -1.85182  -0.20537 
 C                     0.18744  -1.07524  -0.14614 
 H                     0.38939  -1.86916   0.58497 
 H                     0.48347  -1.58732  -1.08361 
 C                     1.14634   0.02639   0.0565 
 C                     2.51891  -0.4042    0.25469 
 C                    -3.03708   1.10951  -0.3634 
 H                    -3.03016   2.19886  -0.4209 
 H                    -3.51566   0.71608  -1.25892 
 H                    -3.6605    0.80798   0.4765 
 C                    -1.70051  -3.27655  -0.18286 
 H                    -2.49358  -3.92569  -0.5465 
 H                    -0.80659  -3.43145  -0.784 
 H                    -1.4645   -3.57271   0.84271 
 C                     3.57561   0.52334   0.80583 
 H                     4.079     1.05819  -0.00265 
 H                     3.18187   1.25676   1.50477 
 H                     4.32043  -0.08893   1.31014 
 C                     1.47143   2.60724   0.02371 
 H                     1.76879   2.89599   1.03421 
 H                     2.37613   2.51428  -0.57277 
 H                     0.89194   3.43205  -0.39219 
 
 ITRead=  0  0  0  0  0  0  0  0  0  0  0  0  0  0  0  0  0  0  0  0
 ITRead=  0  0  0  0  0  0  0  0  0
 MicOpt= -1 -1 -1 -1 -1 -1 -1 -1 -1 -1 -1 -1 -1 -1 -1 -1 -1 -1 -1 -1
 MicOpt= -1 -1 -1 -1 -1 -1 -1 -1 -1
 NAtoms=     29 NQM=       29 NQMF=       0 NMMI=      0 NMMIF=      0
                NMic=       0 NMicF=      0.
                    Isotopes and Nuclear Properties:
 (Nuclear quadrupole moments (NQMom) in fm**2, nuclear magnetic moments (NMagM)
  in nuclear magnetons)

  Atom         1           2           3           4           5           6           7           8           9          10
 IAtWgt=          16          16          14           1          12          12          12          12          12           1
 AtmWgt=  15.9949146  15.9949146  14.0030740   1.0078250  12.0000000  12.0000000  12.0000000  12.0000000  12.0000000   1.0078250
 NucSpn=           0           0           2           1           0           0           0           0           0           1
 AtZEff=  -0.0000000  -0.0000000  -0.0000000  -0.0000000  -0.0000000  -0.0000000  -0.0000000  -0.0000000  -0.0000000  -0.0000000
 NQMom=    0.0000000   0.0000000   2.0440000   0.0000000   0.0000000   0.0000000   0.0000000   0.0000000   0.0000000   0.0000000
 NMagM=    0.0000000   0.0000000   0.4037610   2.7928460   0.0000000   0.0000000   0.0000000   0.0000000   0.0000000   2.7928460
 AtZNuc=   8.0000000   8.0000000   7.0000000   1.0000000   6.0000000   6.0000000   6.0000000   6.0000000   6.0000000   1.0000000

  Atom        11          12          13          14          15          16          17          18          19          20
 IAtWgt=           1          12          12          12           1           1           1          12           1           1
 AtmWgt=   1.0078250  12.0000000  12.0000000  12.0000000   1.0078250   1.0078250   1.0078250  12.0000000   1.0078250   1.0078250
 NucSpn=           1           0           0           0           1           1           1           0           1           1
 AtZEff=  -0.0000000  -0.0000000  -0.0000000  -0.0000000  -0.0000000  -0.0000000  -0.0000000  -0.0000000  -0.0000000  -0.0000000
 NQMom=    0.0000000   0.0000000   0.0000000   0.0000000   0.0000000   0.0000000   0.0000000   0.0000000   0.0000000   0.0000000
 NMagM=    2.7928460   0.0000000   0.0000000   0.0000000   2.7928460   2.7928460   2.7928460   0.0000000   2.7928460   2.7928460
 AtZNuc=   1.0000000   6.0000000   6.0000000   6.0000000   1.0000000   1.0000000   1.0000000   6.0000000   1.0000000   1.0000000

  Atom        21          22          23          24          25          26          27          28          29
 IAtWgt=           1          12           1           1           1          12           1           1           1
 AtmWgt=   1.0078250  12.0000000   1.0078250   1.0078250   1.0078250  12.0000000   1.0078250   1.0078250   1.0078250
 NucSpn=           1           0           1           1           1           0           1           1           1
 AtZEff=  -0.0000000  -0.0000000  -0.0000000  -0.0000000  -0.0000000  -0.0000000  -0.0000000  -0.0000000  -0.0000000
 NQMom=    0.0000000   0.0000000   0.0000000   0.0000000   0.0000000   0.0000000   0.0000000   0.0000000   0.0000000
 NMagM=    2.7928460   0.0000000   2.7928460   2.7928460   2.7928460   0.0000000   2.7928460   2.7928460   2.7928460
 AtZNuc=   1.0000000   6.0000000   1.0000000   1.0000000   1.0000000   6.0000000   1.0000000   1.0000000   1.0000000
 Leave Link  101 at Fri Jan 23 15:04:14 2026, MaxMem=  2147483648 cpu:               0.8 elap:               0.1
 (Enter /data/home/wyx/g16/l202.exe)
                          Input orientation:                          
 ---------------------------------------------------------------------
 Center     Atomic      Atomic             Coordinates (Angstroms)
 Number     Number       Type             X           Y           Z
 ---------------------------------------------------------------------
      1          8           0        2.840355   -1.575566    0.006876
      2          8           0       -3.430456   -1.656480   -0.200573
      3          7           0       -0.673261    1.519260   -0.136562
      4          1           0       -0.985797    2.480907   -0.184817
      5          6           0       -1.251081   -0.764420   -0.195008
      6          6           0        0.673027    1.344959   -0.001164
      7          6           0       -1.646543    0.587748   -0.223477
      8          6           0       -2.208444   -1.851824   -0.205370
      9          6           0        0.187435   -1.075242   -0.146137
     10          1           0        0.389393   -1.869159    0.584973
     11          1           0        0.483471   -1.587317   -1.083615
     12          6           0        1.146336    0.026389    0.056495
     13          6           0        2.518909   -0.404196    0.254690
     14          6           0       -3.037078    1.109507   -0.363395
     15          1           0       -3.030155    2.198859   -0.420899
     16          1           0       -3.515660    0.716076   -1.258921
     17          1           0       -3.660503    0.807978    0.476504
     18          6           0       -1.700512   -3.276547   -0.182859
     19          1           0       -2.493575   -3.925694   -0.546499
     20          1           0       -0.806587   -3.431445   -0.784002
     21          1           0       -1.464503   -3.572706    0.842713
     22          6           0        3.575614    0.523342    0.805827
     23          1           0        4.079000    1.058186   -0.002651
     24          1           0        3.181872    1.256761    1.504771
     25          1           0        4.320435   -0.088933    1.310142
     26          6           0        1.471434    2.607239    0.023709
     27          1           0        1.768788    2.895985    1.034213
     28          1           0        2.376132    2.514280   -0.572765
     29          1           0        0.891940    3.432050   -0.392194
 ---------------------------------------------------------------------
                    Distance matrix (angstroms):
                    1          2          3          4          5
     1  O    0.000000
     2  O    6.274763   0.000000
     3  N    4.684444   4.206132   0.000000
     4  H    5.579530   4.805682   1.012310   0.000000
     5  C    4.175951   2.354884   2.356371   3.256168   0.000000
     6  C    3.636872   5.087924   1.364260   2.018862   2.861686
     7  C    4.986506   2.866955   1.350017   2.005525   1.409099
     8  C    5.060804   1.237536   3.704825   4.501982   1.448827
     9  C    2.704020   3.664688   2.733556   3.744885   1.472524
    10  H    2.535273   3.905581   3.623704   4.626748   2.126023
    11  H    2.596962   4.012901   3.447573   4.417809   2.115527
    12  C    2.332043   4.883150   2.361539   3.260197   2.536975
    13  C    1.239696   6.096755   3.747360   4.560696   3.813766
    14  C    6.472321   2.798561   2.409768   2.473941   2.594175
    15  H    6.992293   3.882322   2.469342   2.077182   3.463691
    16  H    6.874067   2.599304   3.159751   3.266272   2.907249
    17  H    6.939956   2.566108   3.131355   3.223366   2.954434
    18  C    4.852711   2.370156   4.904809   5.801646   2.552042
    19  H    5.854924   2.479263   5.755790   6.591566   3.414819
    20  H    4.167728   3.221115   4.994641   5.945338   2.767221
    21  H    4.818609   2.936893   5.245299   6.158832   3.001480
    22  C    2.363122   7.406044   4.464626   5.061611   5.094800
    23  H    2.910495   7.987522   4.776453   5.263980   5.636369
    24  H    3.222173   7.424153   4.198206   4.660762   5.159990
    25  H    2.469659   8.050824   5.442080   6.082358   5.810641
    26  C    4.401146   6.500625   2.410208   2.469297   4.339125
    27  H    4.711523   7.020098   3.038040   3.040734   4.901954
    28  H    4.156721   7.158927   3.237149   3.384403   4.904003
    29  H    5.388116   6.679294   2.484747   2.115083   4.716119
                    6          7          8          9         10
     6  C    0.000000
     7  C    2.450142   0.000000
     8  C    4.308596   2.503512   0.000000
     9  C    2.472689   2.476892   2.519290   0.000000
    10  H    3.279414   3.291659   2.715456   1.098004   0.000000
    11  H    3.131433   3.163496   2.843885   1.108478   1.694837
    12  C    1.402132   2.862461   3.853674   1.474497   2.108401
    13  C    2.555833   4.308548   4.965395   2.459011   2.605771
    14  C    3.735174   1.491776   3.079137   3.901002   4.638163
    15  H    3.823464   2.132847   4.138804   4.598708   5.408684
    16  H    4.418432   2.140610   3.068044   4.261458   5.033172
    17  H    4.392721   2.143481   3.106119   4.329068   4.855974
    18  C    5.198559   3.864885   1.512725   2.900248   2.634010
    19  H    6.172888   4.603582   2.120992   3.933596   3.717670
    20  H    5.061238   4.144107   2.189799   2.635649   2.396914
    21  H    5.428130   4.298753   2.147874   3.153419   2.530896
    22  C    3.122707   5.323020   6.333977   3.865419   3.990594
    23  H    3.418025   5.749080   6.931176   4.440313   4.746351
    24  H    2.927443   5.171848   6.453169   4.138887   4.291310
    25  H    4.132693   6.197960   6.930427   4.491686   4.375862
    26  C    1.493795   3.723067   5.785950   3.903610   4.639393
    27  H    2.162956   4.309783   6.316378   4.434473   4.981079
    28  H    2.143503   4.473862   6.341623   4.225763   4.949952
    29  H    2.134661   3.816073   6.129161   4.568649   5.413892
                   11         12         13         14         15
    11  H    0.000000
    12  C    2.084056   0.000000
    13  C    2.708107   1.452116   0.000000
    14  C    4.492866   4.341705   5.791573   0.000000
    15  H    5.207676   4.731872   6.166395   1.090891   0.000000
    16  H    4.618376   4.892872   6.321554   1.088942   1.771057
    17  H    5.034276   4.888046   6.301087   1.088581   1.771220
    18  C    2.904245   4.367061   5.123023   4.588733   5.639564
    19  H    3.823520   5.406618   6.178013   5.067758   6.149296
    20  H    2.270424   4.059182   4.615413   5.076637   6.064357
    21  H    3.383358   4.515319   5.123748   5.084369   6.112196
    22  C    4.193593   2.590338   1.510200   6.740799   6.924478
    23  H    4.592929   3.109441   2.153757   7.125401   7.212222
    24  H    4.697860   2.784731   2.181972   6.495157   6.571532
    25  H    4.764191   3.414650   2.111603   7.640025   7.890606
    26  C    4.449330   2.601452   3.196763   4.766522   4.541889
    27  H    5.122229   3.094828   3.472972   5.314241   5.062923
    28  H    4.546013   2.845693   3.036868   5.596433   5.417610
    29  H    5.083203   3.444498   4.216903   4.564232   4.111498
                   16         17         18         19         20
    16  H    0.000000
    17  H    1.743882   0.000000
    18  C    4.515940   4.578173   0.000000
    19  H    4.806062   4.981557   1.087463   0.000000
    20  H    4.976601   5.263689   1.088333   1.773871   0.000000
    21  H    5.197861   4.913951   1.093256   1.764511   1.760400
    22  C    7.388268   7.249197   6.576790   7.645768   6.113230
    23  H    7.705460   7.758357   7.226697   8.266412   6.681037
    24  H    7.265485   6.933746   6.872892   7.954637   6.567006
    25  H    8.285681   8.074328   6.974363   8.037324   6.468708
    26  C    5.485685   5.457027   6.687514   7.663266   6.504420
    27  H    6.159209   5.843630   7.184529   8.197664   7.069288
    28  H    6.198190   6.360298   7.092583   8.073909   6.747293
    29  H    5.249254   5.325892   7.195130   8.100736   7.081389
                   21         22         23         24         25
    21  H    0.000000
    22  C    6.494748   0.000000
    23  H    7.272567   1.092288   0.000000
    24  H    6.734306   1.086949   1.765387   0.000000
    25  H    6.769097   1.088105   1.760000   1.773443   0.000000
    26  C    6.890734   3.062990   3.033094   2.634945   4.128082
    27  H    7.234280   2.991022   3.128845   2.214788   3.936594
    28  H    7.335220   2.702426   2.311925   2.558657   3.755312
    29  H    7.492958   4.134966   3.993035   3.684311   5.200947
                   26         27         28         29
    26  C    0.000000
    27  H    1.092205   0.000000
    28  H    1.087613   1.759814   0.000000
    29  H    1.090459   1.758086   1.754347   0.000000
 Stoichiometry    C11H15NO2
 Framework group  C1[X(C11H15NO2)]
 Deg. of freedom    81
 Full point group                 C1      NOp   1
 Largest Abelian subgroup         C1      NOp   1
 Largest concise Abelian subgroup C1      NOp   1
                         Standard orientation:                         
 ---------------------------------------------------------------------
 Center     Atomic      Atomic             Coordinates (Angstroms)
 Number     Number       Type             X           Y           Z
 ---------------------------------------------------------------------
      1          8           0        2.281703   -2.288047   -0.293853
      2          8           0       -3.637297   -0.264108    0.197842
      3          7           0        0.017309    1.804723   -0.037396
      4          1           0        0.042781    2.816656   -0.048113
      5          6           0       -1.296873   -0.151142   -0.036964
      6          6           0        1.233124    1.186055   -0.053150
      7          6           0       -1.215778    1.255490   -0.017795
      8          6           0       -2.559469   -0.855562    0.056545
      9          6           0       -0.049584   -0.925721   -0.149322
     10          1           0       -0.051205   -1.769948    0.552741
     11          1           0       -0.041986   -1.469498   -1.115227
     12          6           0        1.239227   -0.216063   -0.051892
     13          6           0        2.400081   -1.087386   -0.008818
     14          6           0       -2.356757    2.216362   -0.000723
     15          1           0       -1.990292    3.242376   -0.055869
     16          1           0       -3.030075    2.041072   -0.838405
     17          1           0       -2.954306    2.106919    0.902585
     18          6           0       -2.560272   -2.367815    0.018750
     19          1           0       -3.558573   -2.700207   -0.255997
     20          1           0       -1.838006   -2.788004   -0.678560
     21          1           0       -2.332173   -2.766287    1.010918
     22          6           0        3.758207   -0.588191    0.423620
     23          1           0        4.325035   -0.220199   -0.434506
     24          1           0        3.708697    0.206147    1.163914
     25          1           0        4.302207   -1.433407    0.840329
     26          6           0        2.407176    2.107636   -0.114099
     27          1           0        2.887631    2.240208    0.857755
     28          1           0        3.160821    1.742006   -0.807810
     29          1           0        2.098537    3.094366   -0.460809
 ---------------------------------------------------------------------
 Rotational constants (GHZ):           1.0702310           0.4891896           0.3417435
 Leave Link  202 at Fri Jan 23 15:04:14 2026, MaxMem=  2147483648 cpu:               0.0 elap:               0.0
 (Enter /data/home/wyx/g16/l301.exe)
 Standard basis: TZVP (5D, 7F)
 Ernie: Thresh=  0.10000D-02 Tol=  0.10000D-05 Strict=F.
 There are   370 symmetry adapted cartesian basis functions of A   symmetry.
 There are   356 symmetry adapted basis functions of A   symmetry.
   356 basis functions,   610 primitive gaussians,   370 cartesian basis functions
    52 alpha electrons       52 beta electrons
       nuclear repulsion energy       898.0749020426 Hartrees.
 IExCor=20419 DFT=T Ex+Corr=CAM-B3LYP ExCW=0 ScaHFX=  1.000000
 ScaDFX=  1.000000  1.000000  1.000000  0.810000 ScalE2=  1.000000  1.000000
 IRadAn=      5 IRanWt=     -1 IRanGd=            0 ICorTp=0 IEmpDi=141
 HFx  wShort=  0.000000 wLong=  0.330000 cFull=  0.190000 cShort=  0.000000 cLong=  0.460000
 DFx  wShort=  0.000000 wLong=  0.330000 cFull=  0.190000 cShort=  0.000000 cLong=  0.460000
 NAtoms=   29 NActive=   29 NUniq=   29 SFac= 1.00D+00 NAtFMM=   60 NAOKFM=F Big=F
 Integral buffers will be    131072 words long.
 Raffenetti 1 integral format.
 Two-electron integral symmetry is turned on.
 R6Disp:  Grimme-D3(BJ) Dispersion energy=       -0.0260901914 Hartrees.
 Nuclear repulsion after empirical dispersion term =      898.0488118512 Hartrees.
 ------------------------------------------------------------------------------
 Polarizable Continuum Model (PCM)
 =================================
 Model                : PCM.
 Atomic radii         : UFF (Universal Force Field).
 Polarization charges : Total charges.
 Charge compensation  : None.
 Solution method      : On-the-fly selection.
 Cavity type          : Scaled VdW (van der Waals Surface) (Alpha=1.100).
 Cavity algorithm     : GePol (No added spheres)
                        Default sphere list used, NSphG=   29.
                        Lebedev-Laikov grids with approx.  5.0 points / Ang**2.
                        Smoothing algorithm: York/Karplus (Gamma=1.0000).
                        Polarization charges: spherical gaussians, with
                                              point-specific exponents (IZeta= 3).
                        Self-potential: point-specific (ISelfS= 7).
                        Self-field    : sphere-specific E.n sum rule (ISelfD= 2).
 Solvent              : TetraHydroFuran, Eps=   7.425700 Eps(inf)=   1.974025
 ------------------------------------------------------------------------------
 GePol: Number of generator spheres                  =      29
 GePol: Total number of spheres                      =      29
 GePol: Number of exposed spheres                    =      29 (100.00%)
 GePol: Number of points                             =    2100
 GePol: Average weight of points                     =       0.13
 GePol: Minimum weight of points                     =   0.97D-10
 GePol: Maximum weight of points                     =    0.20577
 GePol: Number of points with low weight             =     134
 GePol: Fraction of low-weight points (<1% of avg)   =       6.38%
 GePol: Cavity surface area                          =    269.895 Ang**2
 GePol: Cavity volume                                =    287.884 Ang**3
 Leave Link  301 at Fri Jan 23 15:04:14 2026, MaxMem=  2147483648 cpu:               0.6 elap:               0.0
 (Enter /data/home/wyx/g16/l302.exe)
 NPDir=0 NMtPBC=     1 NCelOv=     1 NCel=       1 NClECP=     1 NCelD=      1
         NCelK=      1 NCelE2=     1 NClLst=     1 CellRange=     0.0.
 One-electron integrals computed using PRISM.
 One-electron integral symmetry used in STVInt
 NBasis=   356 RedAO= T EigKep=  3.81D-05  NBF=   356
 NBsUse=   356 1.00D-06 EigRej= -1.00D+00 NBFU=   356
 Precomputing XC quadrature grid using
 IXCGrd= 4 IRadAn=           5 IRanWt=          -1 IRanGd=           0 AccXCQ= 0.00D+00.
 Generated NRdTot=       0 NPtTot=           0 NUsed=           0 NTot=          32
 NSgBfM=   366   366   366   366   366 MxSgAt=    29 MxSgA2=    29.
 Leave Link  302 at Fri Jan 23 15:04:14 2026, MaxMem=  2147483648 cpu:               3.1 elap:               0.2
 (Enter /data/home/wyx/g16/l303.exe)
 DipDrv:  MaxL=1.
 Leave Link  303 at Fri Jan 23 15:04:15 2026, MaxMem=  2147483648 cpu:               0.6 elap:               0.0
 (Enter /data/home/wyx/g16/l308.exe)
 Leave Link  308 at Fri Jan 23 15:04:15 2026, MaxMem=  2147483648 cpu:               0.7 elap:               0.1
 (Enter /data/home/wyx/g16/l401.exe)
 ExpMin= 9.52D-02 ExpMax= 2.70D+04 ExpMxC= 9.22D+02 IAcc=3 IRadAn=         5 AccDes= 0.00D+00
 Harris functional with IExCor=20419 and IRadAn=       5 diagonalized for initial guess.
 HarFok:  IExCor=20419 AccDes= 0.00D+00 IRadAn=         5 IDoV= 1 UseB2=F ITyADJ=14
 ICtDFT=  3500011 ScaDFX=  1.000000  1.000000  1.000000  1.000000
 FoFCou: FMM=F IPFlag=           0 FMFlag=      100000 FMFlg1=           0
         NFxFlg=           0 DoJE=T BraDBF=F KetDBF=T FulRan=T
         wScrn=  0.000000 ICntrl=       500 IOpCl=  0 I1Cent=   200000004 NGrid=           0
         NMat0=    1 NMatS0=      1 NMatT0=    0 NMatD0=    1 NMtDS0=    0 NMtDT0=    0
 Petite list used in FoFCou.
 Harris En= -608.710388921124    
 JPrj=0 DoOrth=F DoCkMO=F.
 Leave Link  401 at Fri Jan 23 15:04:16 2026, MaxMem=  2147483648 cpu:              11.8 elap:               0.8
 (Enter /data/home/wyx/g16/l502.exe)
 Integral symmetry usage will be decided dynamically.
 Closed shell SCF:
 Using DIIS extrapolation, IDIIS=  1040.
 NGot=  2147483648 LenX=  2147200095 LenY=  2147062754
 Requested convergence on RMS density matrix=1.00D-08 within 128 cycles.
 Requested convergence on MAX density matrix=1.00D-06.
 Requested convergence on             energy=1.00D-06.
 No special actions if energy rises.
 Fock matrices will be formed incrementally for  20 cycles.

 Cycle   1  Pass 1  IDiag  1:
 FoFJK:  IHMeth= 1 ICntrl=       0 DoSepK=T KAlg= 0 I1Cent=           0 FoldK=F
 IRaf=         1 NMat=       1 IRICut=       1 DoRegI=T DoRafI=F ISym2E= 0 IDoP0=0 IntGTp=1.
 FoFCou: FMM=F IPFlag=           0 FMFlag=      100000 FMFlg1=           0
         NFxFlg=           0 DoJE=T BraDBF=F KetDBF=F FulRan=T
         wScrn=  0.000000 ICntrl=       500 IOpCl=  0 I1Cent=           0 NGrid=           0
         NMat0=    1 NMatS0=      1 NMatT0=    0 NMatD0=    1 NMtDS0=    0 NMtDT0=    0
 Symmetry not used in FoFCou.
 Inv3:  Mode=1 IEnd=    13230000.
 Iteration    1 A*A^-1 deviation from unit magnitude is 2.89D-15 for   1015.
 Iteration    1 A*A^-1 deviation from orthogonality  is 2.00D-15 for   1389    940.
 Iteration    1 A^-1*A deviation from unit magnitude is 2.89D-15 for   1015.
 Iteration    1 A^-1*A deviation from orthogonality  is 1.19D-13 for   1369   1338.
 E= -633.111885972706    
 DIIS: error= 4.12D-02 at cycle   1 NSaved=   1.
 NSaved= 1 IEnMin= 1 EnMin= -633.111885972706     IErMin= 1 ErrMin= 4.12D-02
 ErrMax= 4.12D-02  0.00D+00 EMaxC= 1.00D-01 BMatC= 1.10D+00 BMatP= 1.10D+00
 IDIUse=3 WtCom= 5.88D-01 WtEn= 4.12D-01
 Coeff-Com:  0.100D+01
 Coeff-En:   0.100D+01
 Coeff:      0.100D+01
 Gap=     0.195 Goal=   None    Shift=    0.000
 GapD=    0.195 DampG=1.000 DampE=0.500 DampFc=0.5000 IDamp=-1.
 Damping current iteration by 5.00D-01
 RMSDP=3.91D-03 MaxDP=1.63D-01              OVMax= 1.72D-01

 Cycle   2  Pass 1  IDiag  1:
 RMSU=  1.75D-03    CP:  9.38D-01
 E= -633.208963897470     Delta-E=       -0.097077924764 Rises=F Damp=T
 DIIS: error= 2.06D-02 at cycle   2 NSaved=   2.
 NSaved= 2 IEnMin= 2 EnMin= -633.208963897470     IErMin= 2 ErrMin= 2.06D-02
 ErrMax= 2.06D-02  0.00D+00 EMaxC= 1.00D-01 BMatC= 2.24D-01 BMatP= 1.10D+00
 IDIUse=3 WtCom= 7.94D-01 WtEn= 2.06D-01
 Coeff-Com: -0.570D+00 0.157D+01
 Coeff-En:   0.000D+00 0.100D+01
 Coeff:     -0.453D+00 0.145D+01
 Gap=     0.221 Goal=   None    Shift=    0.000
 RMSDP=1.71D-03 MaxDP=7.14D-02 DE=-9.71D-02 OVMax= 1.61D-01

 Cycle   3  Pass 1  IDiag  1:
 RMSU=  1.59D-03    CP:  9.04D-01  1.23D+00
 E= -633.253554946099     Delta-E=       -0.044591048629 Rises=F Damp=F
 DIIS: error= 1.61D-02 at cycle   3 NSaved=   3.
 NSaved= 3 IEnMin= 3 EnMin= -633.253554946099     IErMin= 3 ErrMin= 1.61D-02
 ErrMax= 1.61D-02  0.00D+00 EMaxC= 1.00D-01 BMatC= 7.27D-02 BMatP= 2.24D-01
 IDIUse=3 WtCom= 8.39D-01 WtEn= 1.61D-01
 Coeff-Com: -0.363D+00 0.799D+00 0.564D+00
 Coeff-En:   0.000D+00 0.604D-01 0.940D+00
 Coeff:     -0.305D+00 0.680D+00 0.625D+00
 Gap=     0.215 Goal=   None    Shift=    0.000
 RMSDP=1.34D-03 MaxDP=6.55D-02 DE=-4.46D-02 OVMax= 9.38D-02

 Cycle   4  Pass 1  IDiag  1:
 RMSU=  5.32D-04    CP:  8.64D-01  1.70D+00  5.43D-01
 E= -633.309709765841     Delta-E=       -0.056154819742 Rises=F Damp=F
 DIIS: error= 5.39D-03 at cycle   4 NSaved=   4.
 NSaved= 4 IEnMin= 4 EnMin= -633.309709765841     IErMin= 4 ErrMin= 5.39D-03
 ErrMax= 5.39D-03  0.00D+00 EMaxC= 1.00D-01 BMatC= 8.78D-03 BMatP= 7.27D-02
 IDIUse=3 WtCom= 9.46D-01 WtEn= 5.39D-02
 Coeff-Com: -0.158D+00 0.344D+00 0.363D+00 0.451D+00
 Coeff-En:   0.000D+00 0.000D+00 0.551D-01 0.945D+00
 Coeff:     -0.150D+00 0.325D+00 0.346D+00 0.478D+00
 Gap=     0.213 Goal=   None    Shift=    0.000
 RMSDP=3.62D-04 MaxDP=2.12D-02 DE=-5.62D-02 OVMax= 2.29D-02

 Cycle   5  Pass 1  IDiag  1:
 RMSU=  1.04D-04    CP:  8.73D-01  1.63D+00  6.93D-01  6.56D-01
 E= -633.316912457325     Delta-E=       -0.007202691484 Rises=F Damp=F
 DIIS: error= 4.61D-04 at cycle   5 NSaved=   5.
 NSaved= 5 IEnMin= 5 EnMin= -633.316912457325     IErMin= 5 ErrMin= 4.61D-04
 ErrMax= 4.61D-04  0.00D+00 EMaxC= 1.00D-01 BMatC= 8.29D-05 BMatP= 8.78D-03
 IDIUse=3 WtCom= 9.95D-01 WtEn= 4.61D-03
 Coeff-Com: -0.167D-01 0.355D-01 0.517D-01 0.136D+00 0.794D+00
 Coeff-En:   0.000D+00 0.000D+00 0.000D+00 0.000D+00 0.100D+01
 Coeff:     -0.166D-01 0.353D-01 0.515D-01 0.135D+00 0.795D+00
 Gap=     0.213 Goal=   None    Shift=    0.000
 RMSDP=1.40D-04 MaxDP=9.86D-03 DE=-7.20D-03 OVMax= 2.02D-03

 Cycle   6  Pass 1  IDiag  1:
 RMSU=  5.41D-05    CP:  8.67D-01  1.67D+00  6.99D-01  7.96D-01  1.15D+00
 E= -633.316965681810     Delta-E=       -0.000053224485 Rises=F Damp=F
 DIIS: error= 4.24D-04 at cycle   6 NSaved=   6.
 NSaved= 6 IEnMin= 6 EnMin= -633.316965681810     IErMin= 6 ErrMin= 4.24D-04
 ErrMax= 4.24D-04  0.00D+00 EMaxC= 1.00D-01 BMatC= 2.95D-05 BMatP= 8.29D-05
 IDIUse=3 WtCom= 9.96D-01 WtEn= 4.24D-03
 Coeff-Com:  0.166D-01-0.363D-01-0.296D-01 0.232D-02 0.481D+00 0.566D+00
 Coeff-En:   0.000D+00 0.000D+00 0.000D+00 0.000D+00 0.105D+00 0.895D+00
 Coeff:      0.165D-01-0.362D-01-0.295D-01 0.231D-02 0.479D+00 0.568D+00
 Gap=     0.214 Goal=   None    Shift=    0.000
 RMSDP=2.62D-05 MaxDP=1.36D-03 DE=-5.32D-05 OVMax= 2.63D-03

 Cycle   7  Pass 1  IDiag  1:
 RMSU=  1.70D-05    CP:  8.68D-01  1.67D+00  7.01D-01  7.84D-01  1.21D+00
                    CP:  7.43D-01
 E= -633.316990422364     Delta-E=       -0.000024740554 Rises=F Damp=F
 DIIS: error= 5.19D-05 at cycle   7 NSaved=   7.
 NSaved= 7 IEnMin= 7 EnMin= -633.316990422364     IErMin= 7 ErrMin= 5.19D-05
 ErrMax= 5.19D-05  0.00D+00 EMaxC= 1.00D-01 BMatC= 1.04D-06 BMatP= 2.95D-05
 IDIUse=1 WtCom= 1.00D+00 WtEn= 0.00D+00
 Coeff-Com:  0.363D-02-0.784D-02-0.728D-02-0.975D-02 0.147D-01 0.155D+00
 Coeff-Com:  0.852D+00
 Coeff:      0.363D-02-0.784D-02-0.728D-02-0.975D-02 0.147D-01 0.155D+00
 Coeff:      0.852D+00
 Gap=     0.214 Goal=   None    Shift=    0.000
 RMSDP=1.82D-05 MaxDP=9.43D-04 DE=-2.47D-05 OVMax= 5.84D-04

 Cycle   8  Pass 1  IDiag  1:
 RMSU=  4.97D-06    CP:  8.67D-01  1.67D+00  7.04D-01  8.01D-01  1.26D+00
                    CP:  8.75D-01  1.02D+00
 E= -633.316991880205     Delta-E=       -0.000001457841 Rises=F Damp=F
 DIIS: error= 2.79D-05 at cycle   8 NSaved=   8.
 NSaved= 8 IEnMin= 8 EnMin= -633.316991880205     IErMin= 8 ErrMin= 2.79D-05
 ErrMax= 2.79D-05  0.00D+00 EMaxC= 1.00D-01 BMatC= 1.31D-07 BMatP= 1.04D-06
 IDIUse=1 WtCom= 1.00D+00 WtEn= 0.00D+00
 Coeff-Com: -0.501D-03 0.115D-02 0.531D-03-0.561D-02-0.639D-01-0.383D-02
 Coeff-Com:  0.302D+00 0.770D+00
 Coeff:     -0.501D-03 0.115D-02 0.531D-03-0.561D-02-0.639D-01-0.383D-02
 Coeff:      0.302D+00 0.770D+00
 Gap=     0.214 Goal=   None    Shift=    0.000
 RMSDP=4.99D-06 MaxDP=1.99D-04 DE=-1.46D-06 OVMax= 4.09D-04

 Cycle   9  Pass 1  IDiag  1:
 RMSU=  1.43D-06    CP:  8.67D-01  1.67D+00  7.04D-01  8.06D-01  1.28D+00
                    CP:  9.08D-01  1.12D+00  1.24D+00
 E= -633.316992103314     Delta-E=       -0.000000223108 Rises=F Damp=F
 DIIS: error= 5.88D-06 at cycle   9 NSaved=   9.
 NSaved= 9 IEnMin= 9 EnMin= -633.316992103314     IErMin= 9 ErrMin= 5.88D-06
 ErrMax= 5.88D-06  0.00D+00 EMaxC= 1.00D-01 BMatC= 2.01D-08 BMatP= 1.31D-07
 IDIUse=1 WtCom= 1.00D+00 WtEn= 0.00D+00
 Coeff-Com: -0.884D-03 0.193D-02 0.171D-02-0.161D-03-0.254D-01-0.201D-01
 Coeff-Com: -0.381D-01 0.278D+00 0.803D+00
 Coeff:     -0.884D-03 0.193D-02 0.171D-02-0.161D-03-0.254D-01-0.201D-01
 Coeff:     -0.381D-01 0.278D+00 0.803D+00
 Gap=     0.214 Goal=   None    Shift=    0.000
 RMSDP=2.40D-06 MaxDP=1.83D-04 DE=-2.23D-07 OVMax= 1.35D-04

 Cycle  10  Pass 1  IDiag  1:
 RMSU=  9.49D-07    CP:  8.67D-01  1.67D+00  7.04D-01  8.07D-01  1.28D+00
                    CP:  9.31D-01  1.15D+00  1.36D+00  1.06D+00
 E= -633.316992134767     Delta-E=       -0.000000031454 Rises=F Damp=F
 DIIS: error= 2.34D-06 at cycle  10 NSaved=  10.
 NSaved=10 IEnMin=10 EnMin= -633.316992134767     IErMin=10 ErrMin= 2.34D-06
 ErrMax= 2.34D-06  0.00D+00 EMaxC= 1.00D-01 BMatC= 1.64D-09 BMatP= 2.01D-08
 IDIUse=1 WtCom= 1.00D+00 WtEn= 0.00D+00
 Coeff-Com: -0.242D-03 0.523D-03 0.505D-03 0.276D-03-0.397D-02-0.501D-02
 Coeff-Com: -0.392D-01 0.353D-01 0.268D+00 0.744D+00
 Coeff:     -0.242D-03 0.523D-03 0.505D-03 0.276D-03-0.397D-02-0.501D-02
 Coeff:     -0.392D-01 0.353D-01 0.268D+00 0.744D+00
 Gap=     0.214 Goal=   None    Shift=    0.000
 RMSDP=5.16D-07 MaxDP=2.99D-05 DE=-3.15D-08 OVMax= 3.42D-05

 Cycle  11  Pass 1  IDiag  1:
 RMSU=  3.18D-07    CP:  8.67D-01  1.67D+00  7.04D-01  8.08D-01  1.28D+00
                    CP:  9.34D-01  1.15D+00  1.39D+00  1.19D+00  8.70D-01
 E= -633.316992136762     Delta-E=       -0.000000001995 Rises=F Damp=F
 DIIS: error= 1.34D-06 at cycle  11 NSaved=  11.
 NSaved=11 IEnMin=11 EnMin= -633.316992136762     IErMin=11 ErrMin= 1.34D-06
 ErrMax= 1.34D-06  0.00D+00 EMaxC= 1.00D-01 BMatC= 5.34D-10 BMatP= 1.64D-09
 IDIUse=1 WtCom= 1.00D+00 WtEn= 0.00D+00
 Coeff-Com:  0.211D-04-0.488D-04-0.151D-04 0.177D-03 0.236D-02 0.113D-02
 Coeff-Com: -0.159D-01-0.303D-01-0.529D-03 0.417D+00 0.626D+00
 Coeff:      0.211D-04-0.488D-04-0.151D-04 0.177D-03 0.236D-02 0.113D-02
 Coeff:     -0.159D-01-0.303D-01-0.529D-03 0.417D+00 0.626D+00
 Gap=     0.214 Goal=   None    Shift=    0.000
 RMSDP=2.03D-07 MaxDP=1.11D-05 DE=-1.99D-09 OVMax= 1.33D-05

 Cycle  12  Pass 1  IDiag  1:
 RMSU=  8.92D-08    CP:  8.67D-01  1.67D+00  7.04D-01  8.08D-01  1.28D+00
                    CP:  9.34D-01  1.15D+00  1.41D+00  1.18D+00  9.78D-01
                    CP:  8.01D-01
 E= -633.316992137245     Delta-E=       -0.000000000483 Rises=F Damp=F
 DIIS: error= 3.30D-07 at cycle  12 NSaved=  12.
 NSaved=12 IEnMin=12 EnMin= -633.316992137245     IErMin=12 ErrMin= 3.30D-07
 ErrMax= 3.30D-07  0.00D+00 EMaxC= 1.00D-01 BMatC= 4.35D-11 BMatP= 5.34D-10
 IDIUse=1 WtCom= 1.00D+00 WtEn= 0.00D+00
 Coeff-Com:  0.247D-04-0.551D-04-0.375D-04 0.626D-04 0.138D-02 0.913D-03
 Coeff-Com: -0.425D-02-0.160D-01-0.249D-01 0.128D+00 0.298D+00 0.616D+00
 Coeff:      0.247D-04-0.551D-04-0.375D-04 0.626D-04 0.138D-02 0.913D-03
 Coeff:     -0.425D-02-0.160D-01-0.249D-01 0.128D+00 0.298D+00 0.616D+00
 Gap=     0.214 Goal=   None    Shift=    0.000
 RMSDP=5.10D-08 MaxDP=2.58D-06 DE=-4.83D-10 OVMax= 2.58D-06

 Cycle  13  Pass 1  IDiag  1:
 RMSU=  2.59D-08    CP:  8.67D-01  1.67D+00  7.04D-01  8.08D-01  1.28D+00
                    CP:  9.35D-01  1.15D+00  1.41D+00  1.20D+00  9.81D-01
                    CP:  9.00D-01  9.27D-01
 E= -633.316992137289     Delta-E=       -0.000000000044 Rises=F Damp=F
 DIIS: error= 7.22D-08 at cycle  13 NSaved=  13.
 NSaved=13 IEnMin=13 EnMin= -633.316992137289     IErMin=13 ErrMin= 7.22D-08
 ErrMax= 7.22D-08  0.00D+00 EMaxC= 1.00D-01 BMatC= 3.02D-12 BMatP= 4.35D-11
 IDIUse=1 WtCom= 1.00D+00 WtEn= 0.00D+00
 Coeff-Com:  0.645D-05-0.139D-04-0.128D-04-0.823D-05 0.140D-03 0.157D-03
 Coeff-Com:  0.831D-03-0.695D-03-0.100D-01-0.210D-01 0.111D-01 0.199D+00
 Coeff-Com:  0.820D+00
 Coeff:      0.645D-05-0.139D-04-0.128D-04-0.823D-05 0.140D-03 0.157D-03
 Coeff:      0.831D-03-0.695D-03-0.100D-01-0.210D-01 0.111D-01 0.199D+00
 Coeff:      0.820D+00
 Gap=     0.214 Goal=   None    Shift=    0.000
 RMSDP=1.77D-08 MaxDP=5.76D-07 DE=-4.40D-11 OVMax= 1.27D-06

 Cycle  14  Pass 1  IDiag  1:
 RMSU=  1.02D-08    CP:  8.67D-01  1.67D+00  7.04D-01  8.08D-01  1.28D+00
                    CP:  9.35D-01  1.15D+00  1.41D+00  1.20D+00  9.83D-01
                    CP:  9.35D-01  1.01D+00  1.04D+00
 E= -633.316992137296     Delta-E=       -0.000000000008 Rises=F Damp=F
 DIIS: error= 4.98D-08 at cycle  14 NSaved=  14.
 NSaved=14 IEnMin=14 EnMin= -633.316992137296     IErMin=14 ErrMin= 4.98D-08
 ErrMax= 4.98D-08  0.00D+00 EMaxC= 1.00D-01 BMatC= 2.74D-13 BMatP= 3.02D-12
 IDIUse=1 WtCom= 1.00D+00 WtEn= 0.00D+00
 Coeff-Com:  0.809D-06-0.161D-05-0.213D-05-0.714D-05-0.360D-04 0.112D-04
 Coeff-Com:  0.539D-03 0.936D-03-0.155D-02-0.152D-01-0.121D-01 0.196D-01
 Coeff-Com:  0.253D+00 0.755D+00
 Coeff:      0.809D-06-0.161D-05-0.213D-05-0.714D-05-0.360D-04 0.112D-04
 Coeff:      0.539D-03 0.936D-03-0.155D-02-0.152D-01-0.121D-01 0.196D-01
 Coeff:      0.253D+00 0.755D+00
 Gap=     0.214 Goal=   None    Shift=    0.000
 RMSDP=6.52D-09 MaxDP=2.83D-07 DE=-7.50D-12 OVMax= 5.93D-07

 Error on total polarization charges =  0.01442
 SCF Done:  E(RCAM-B3LYP) =  -633.316992137     A.U. after   14 cycles
            NFock= 14  Conv=0.65D-08     -V/T= 2.0044
 KE= 6.305549824240D+02 PE=-3.271952321721D+03 EE= 1.110031535308D+03
 Leave Link  502 at Fri Jan 23 15:05:11 2026, MaxMem=  2147483648 cpu:             873.4 elap:              55.1
 (Enter /data/home/wyx/g16/l801.exe)
 DoSCS=F DFT=T ScalE2(SS,OS)=  1.000000  1.000000
 ExpMin= 9.52D-02 ExpMax= 2.70D+04 ExpMxC= 9.22D+02 IAcc=3 IRadAn=         5 AccDes= 0.00D+00
 HarFok:  IExCor=  205 AccDes= 0.00D+00 IRadAn=         5 IDoV=-2 UseB2=F ITyADJ=14
 ICtDFT= 12500011 ScaDFX=  1.000000  1.000000  1.000000  1.000000
 Largest valence mixing into a core orbital is  5.58D-05
 Largest core mixing into a valence orbital is  1.13D-05
 Range of M.O.s used for correlation:    15   356
 NBasis=   356 NAE=    52 NBE=    52 NFC=    14 NFV=     0
 NROrb=    342 NOA=    38 NOB=    38 NVA=   304 NVB=   304

 **** Warning!!: The largest alpha MO coefficient is  0.60726080D+02

 Leave Link  801 at Fri Jan 23 15:05:11 2026, MaxMem=  2147483648 cpu:               1.0 elap:               0.1
 (Enter /data/home/wyx/g16/l914.exe)
 RHF ground state
 Two-electron integrals replicated using symmetry.
 MDV=  2147483648 DFT=T DoStab=F Mixed=T DoRPA=T DoScal=F NonHer=T
 NEqPCM:  Using non-equilibrium solvation (IEInf=1, Eps=   7.4257, EpsInf=   1.9740)
 Inv3:  Mode=1 IEnd=    13230000.
 Iteration    1 A*A^-1 deviation from unit magnitude is 3.22D-15 for    746.
 Iteration    1 A*A^-1 deviation from orthogonality  is 1.99D-15 for   2012    800.
 Iteration    1 A^-1*A deviation from unit magnitude is 2.89D-15 for     63.
 Iteration    1 A^-1*A deviation from orthogonality  is 2.00D-15 for   1908     89.
 Making orbital integer symmetry assigments:
 Orbital symmetries:
       Occupied  (A) (A) (A) (A) (A) (A) (A) (A) (A) (A) (A) (A)
                 (A) (A) (A) (A) (A) (A) (A) (A) (A) (A) (A) (A)
                 (A) (A) (A) (A) (A) (A) (A) (A) (A) (A) (A) (A)
                 (A) (A) (A) (A) (A) (A) (A) (A) (A) (A) (A) (A)
                 (A) (A) (A) (A)
       Virtual   (A) (A) (A) (A) (A) (A) (A) (A) (A) (A) (A) (A)
                 (A) (A) (A) (A) (A) (A) (A) (A) (A) (A) (A) (A)
                 (A) (A) (A) (A) (A) (A) (A) (A) (A) (A) (A) (A)
                 (A) (A) (A) (A) (A) (A) (A) (A) (A) (A) (A) (A)
                 (A) (A) (A) (A) (A) (A) (A) (A) (A) (A) (A) (A)
                 (A) (A) (A) (A) (A) (A) (A) (A) (A) (A) (A) (A)
                 (A) (A) (A) (A) (A) (A) (A) (A) (A) (A) (A) (A)
                 (A) (A) (A) (A) (A) (A) (A) (A) (A) (A) (A) (A)
                 (A) (A) (A) (A) (A) (A) (A) (A) (A) (A) (A) (A)
                 (A) (A) (A) (A) (A) (A) (A) (A) (A) (A) (A) (A)
                 (A) (A) (A) (A) (A) (A) (A) (A) (A) (A) (A) (A)
                 (A) (A) (A) (A) (A) (A) (A) (A) (A) (A) (A) (A)
                 (A) (A) (A) (A) (A) (A) (A) (A) (A) (A) (A) (A)
                 (A) (A) (A) (A) (A) (A) (A) (A) (A) (A) (A) (A)
                 (A) (A) (A) (A) (A) (A) (A) (A) (A) (A) (A) (A)
                 (A) (A) (A) (A) (A) (A) (A) (A) (A) (A) (A) (A)
                 (A) (A) (A) (A) (A) (A) (A) (A) (A) (A) (A) (A)
                 (A) (A) (A) (A) (A) (A) (A) (A) (A) (A) (A) (A)
                 (A) (A) (A) (A) (A) (A) (A) (A) (A) (A) (A) (A)
                 (A) (A) (A) (A) (A) (A) (A) (A) (A) (A) (A) (A)
                 (A) (A) (A) (A) (A) (A) (A) (A) (A) (A) (A) (A)
                 (A) (A) (A) (A) (A) (A) (A) (A) (A) (A) (A) (A)
                 (A) (A) (A) (A) (A) (A) (A) (A) (A) (A) (A) (A)
                 (A) (A) (A) (A) (A) (A) (A) (A) (A) (A) (A) (A)
                 (A) (A) (A) (A) (A) (A) (A) (A) (A) (A) (A) (A)
                 (A) (A) (A) (A)
    24 initial guesses have been made.
 Convergence on wavefunction:    0.001000000000000
 Davidson Disk Diagonalization:  ConvIn= 1.00D-03 SkipCon=T Conv= 1.00D-03.
 Max sub-space:  2000 roots to seek:    24 dimension of matrix:        23104
 Iteration     1 Dimension    24 NMult     0 NNew     24
 CISAX will form    24 AO SS matrices at one time.
 NMat=    24 NSing=    24 JSym2X= 0.
 FoFJK:  IHMeth= 1 ICntrl=       0 DoSepK=T KAlg= 0 I1Cent=           0 FoldK=F
 IRaf=         1 NMat=      48 IRICut=       1 DoRegI=T DoRafI=F ISym2E= 0 IDoP0=3 IntGTp=3.
 New state      2 was old state      3
 New state      3 was old state      4
 New state      4 was old state      2
 New state      5 was old state      6
 New state      6 was old state      5
 Excitation Energies [eV] at current iteration:
 Root      1 :     3.355568933577806
 Root      2 :     4.112988879371940
 Root      3 :     4.333701566515017
 Root      4 :     5.217843757639031
 Root      5 :     5.835702267932984
 Root      6 :     6.104275216954749
 Root      7 :     6.381828549159062
 Root      8 :     6.652956588696317
 Root      9 :     6.748494484401816
 Root     10 :     6.929181618299655
 Root     11 :     6.992753849598624
 Root     12 :     7.219796097795739
 Root     13 :     7.245366414499315
 Root     14 :     7.284340149828868
 Root     15 :     7.565524119337582
 Root     16 :     7.882742044156772
 Root     17 :     7.978624378340323
 Root     18 :     8.053941272621747
 Root     19 :     8.088561826672132
 Root     20 :     8.283029034855748
 Root     21 :     8.347263914799838
 Root     22 :     8.438576218747293
 Root     23 :     8.577164482541852
 Root     24 :     8.731774449628912
 Iteration     2 Dimension    36 NMult    24 NNew     12
 CISAX will form    12 AO SS matrices at one time.
 NMat=    12 NSing=    12 JSym2X= 0.
 Root      1 not converged, maximum delta is    0.037127973399432
 Root      2 not converged, maximum delta is    0.076165254397679
 Root      3 not converged, maximum delta is    0.085555716991746
 Root      4 not converged, maximum delta is    0.233239220752797
 New state      5 was old state      6
 Root      5 not converged, maximum delta is    0.236499501517888
 New state      6 was old state      5
 Root      6 not converged, maximum delta is    0.082529549913634
 Excitation Energies [eV] at current iteration:
 Root      1 :     2.903886314683490   Change is   -0.451682618894315
 Root      2 :     3.903334846459652   Change is   -0.209654032912288
 Root      3 :     4.080535815842675   Change is   -0.253165750672342
 Root      4 :     4.880908124564662   Change is   -0.336935633074368
 Root      5 :     5.317603823241512   Change is   -0.786671393713236
 Root      6 :     5.732830164561681   Change is   -0.102872103371303
 Iteration     3 Dimension    48 NMult    36 NNew     12
 CISAX will form    12 AO SS matrices at one time.
 NMat=    12 NSing=    12 JSym2X= 0.
 Root      1 not converged, maximum delta is    0.006966851988604
 Root      2 not converged, maximum delta is    0.017735667649512
 Root      3 not converged, maximum delta is    0.013228623612181
 Root      4 not converged, maximum delta is    0.020282090443888
 Root      5 not converged, maximum delta is    0.022007032201763
 Root      6 not converged, maximum delta is    0.007010665442230
 Excitation Energies [eV] at current iteration:
 Root      1 :     2.886931885990429   Change is   -0.016954428693062
 Root      2 :     3.890974490636284   Change is   -0.012360355823369
 Root      3 :     4.066401974483759   Change is   -0.014133841358915
 Root      4 :     4.861296257635661   Change is   -0.019611866929002
 Root      5 :     5.287793106124571   Change is   -0.029810717116941
 Root      6 :     5.728692165900604   Change is   -0.004137998661076
 Iteration     4 Dimension    60 NMult    48 NNew     12
 CISAX will form    12 AO SS matrices at one time.
 NMat=    12 NSing=    12 JSym2X= 0.
 Root      1 not converged, maximum delta is    0.002485358158239
 Root      2 not converged, maximum delta is    0.001926592287726
 Root      3 not converged, maximum delta is    0.002457868739117
 Root      4 not converged, maximum delta is    0.002273650233307
 Root      5 not converged, maximum delta is    0.002864824937403
 Root      6 not converged, maximum delta is    0.001978956105816
 Excitation Energies [eV] at current iteration:
 Root      1 :     2.885688166472426   Change is   -0.001243719518002
 Root      2 :     3.890438891745466   Change is   -0.000535598890817
 Root      3 :     4.065395344110422   Change is   -0.001006630373337
 Root      4 :     4.859358287737329   Change is   -0.001937969898331
 Root      5 :     5.284528241460671   Change is   -0.003264864663900
 Root      6 :     5.728450309437815   Change is   -0.000241856462789
 Iteration     5 Dimension    72 NMult    60 NNew     12
 CISAX will form    12 AO SS matrices at one time.
 NMat=    12 NSing=    12 JSym2X= 0.
 Root      1 has converged.
 Root      2 has converged.
 Root      3 has converged.
 Root      4 has converged.
 Root      5 has converged.
 Root      6 has converged.
 Excitation Energies [eV] at current iteration:
 Root      1 :     2.885627111779469   Change is   -0.000061054692957
 Root      2 :     3.890396858408454   Change is   -0.000042033337012
 Root      3 :     4.065351878400660   Change is   -0.000043465709761
 Root      4 :     4.859221499841669   Change is   -0.000136787895660
 Root      5 :     5.284290952474385   Change is   -0.000237288986286
 Root      6 :     5.728430384659181   Change is   -0.000019924778634
 Convergence achieved on expansion vectors.
 ***********************************************************************
 Excited states from <AA,BB:AA,BB> singles matrix:
 ***********************************************************************
 
 1PDM for each excited state written to RWF  633
 Ground to excited state transition densities written to RWF  633
 Ground to excited state transition electric dipole moments (Au):
       state          X           Y           Z        Dip. S.      Osc.
         1         1.4795     -0.1356     -0.0402      2.2088      0.1562
         2         0.0220     -0.0402      0.0329      0.0032      0.0003
         3        -0.0792      0.0649     -0.0207      0.0109      0.0011
         4         0.1523      1.2528     -0.0348      1.5939      0.1897
         5        -0.0865     -1.5695      0.0074      2.4710      0.3199
         6        -0.0072     -0.1806     -0.0522      0.0354      0.0050
 Ground to excited state transition velocity dipole moments (Au):
       state          X           Y           Z        Dip. S.      Osc.
         1        -0.1510      0.0106      0.0043      0.0229      0.1442
         2        -0.0032      0.0060     -0.0014      0.0000      0.0002
         3         0.0109     -0.0073     -0.0002      0.0002      0.0008
         4        -0.0327     -0.2115      0.0038      0.0458      0.1710
         5         0.0184      0.2974     -0.0022      0.0888      0.3048
         6         0.0029      0.0363      0.0310      0.0023      0.0072
 Ground to excited state transition magnetic dipole moments (Au):
       state          X           Y           Z
         1         0.0099     -0.0679      1.4861
         2         0.7704     -0.1166     -0.0348
         3         0.1877     -0.9516     -0.2253
         4        -0.0001      0.0214     -0.0033
         5         0.0841     -0.0930      0.2585
         6        -0.0422      0.0090     -0.0367
 Ground to excited state transition velocity quadrupole moments (Au):
       state          XX          YY          ZZ          XY          XZ          YZ
         1         0.1376     -0.0724     -0.0061      0.4449     -0.0228     -0.0179
         2         0.0270     -0.0085     -0.0116     -0.0019      0.0081      0.0676
         3        -0.0464      0.0100      0.0152     -0.0637      0.0576      0.0086
         4         1.1418     -0.2055     -0.0176     -0.0152     -0.0512      0.0170
         5        -0.6489      0.3124      0.0348      0.1995      0.0599     -0.0068
         6         0.0372      0.1119     -0.0875     -0.0108     -0.0212     -0.1081
 <0|del|b> * <b|rxdel|0> + <0|del|b> * <b|delr+rdel|0>
 Rotatory Strengths (R) in cgs (10**-40 erg-esu-cm/Gauss)
       state          XX          YY          ZZ    R(velocity)    E-M Angle
         1        26.1852     19.0481    -17.2139      9.3398       88.93
         2        -1.7191     -6.5447     -7.1904     -5.1514      125.27
         3        17.4350      5.1237     19.9588     14.1725       46.41
         4       -30.5219     -1.0023     13.5667     -5.9858      167.96
         5       -84.5647      2.3577    -14.9123    -32.3731      108.16
         6        -0.6271     -2.0908     -0.4184     -1.0455      110.16
 1/2[<0|r|b>*<b|rxdel|0> + (<0|rxdel|b>*<b|r|0>)*]
 Rotatory Strengths (R) in cgs (10**-40 erg-esu-cm/Gauss)
       state          XX          YY          ZZ     R(length)
         1       -10.3157     -6.5077     42.2980      8.4915
         2       -11.9799     -3.3111      0.8113     -4.8265
         3        10.5084     43.6798     -3.2960     16.9641
         4         0.0146    -18.9639     -0.0822     -6.3438
         5         5.1450   -103.2377     -1.3440    -33.1455
         6        -0.2140      1.1506     -1.3555     -0.1396
  1/2[<0|del|b>*<b|r|0> + (<0|r|b>*<b|del|0>)*] (Au)
       state          X           Y           Z        Dip. S.   Osc.(frdel)
         1        -0.2234     -0.0014     -0.0002      0.2251      0.1500
         2        -0.0001     -0.0002     -0.0000      0.0004      0.0002
         3        -0.0009     -0.0005      0.0000      0.0013      0.0009
         4        -0.0050     -0.2649     -0.0001      0.2700      0.1800
         5        -0.0016     -0.4667     -0.0000      0.4683      0.3122
         6        -0.0000     -0.0066     -0.0016      0.0082      0.0055

 Excitation energies and oscillator strengths:
 
 Excited State   1:      Singlet-A      2.8856 eV  429.66 nm  f=0.1562  <S**2>=0.000
      52 -> 53         0.70231
 This state for optimization and/or second-order correction.
 Total Energy, E(TD-HF/TD-DFT) =  -633.210947292    
 Copying the excited state density for this state as the 1-particle RhoCI density.
 
 Excited State   2:      Singlet-A      3.8904 eV  318.69 nm  f=0.0003  <S**2>=0.000
      50 -> 54         0.15515
      51 -> 53         0.59284
      51 -> 54         0.31222
 
 Excited State   3:      Singlet-A      4.0654 eV  304.98 nm  f=0.0011  <S**2>=0.000
      49 -> 53         0.30639
      49 -> 54        -0.16567
      50 -> 53         0.51261
      50 -> 54        -0.23100
      50 -> 58         0.10677
      51 -> 54         0.18875
 
 Excited State   4:      Singlet-A      4.8592 eV  255.15 nm  f=0.1897  <S**2>=0.000
      52 -> 54         0.69928
 
 Excited State   5:      Singlet-A      5.2843 eV  234.63 nm  f=0.3199  <S**2>=0.000
      49 -> 53         0.58886
      50 -> 53        -0.35547
 
 Excited State   6:      Singlet-A      5.7284 eV  216.44 nm  f=0.0050  <S**2>=0.000
      52 -> 55         0.65094
      52 -> 56         0.15446
      52 -> 57         0.13808
      52 -> 62        -0.10645
 SavETr:  write IOETrn=   770 NScale= 10 NData=  16 NLR=1 NState=    6 LETran=     118.
 Leave Link  914 at Fri Jan 23 15:07:03 2026, MaxMem=  2147483648 cpu:            1779.9 elap:             111.9
 (Enter /data/home/wyx/g16/l601.exe)
 Copying SCF densities to generalized density rwf, IOpCl= 0 IROHF=0.

 **********************************************************************

            Population analysis using the SCF density.

 **********************************************************************

 Orbital symmetries:
       Occupied  (A) (A) (A) (A) (A) (A) (A) (A) (A) (A) (A) (A)
                 (A) (A) (A) (A) (A) (A) (A) (A) (A) (A) (A) (A)
                 (A) (A) (A) (A) (A) (A) (A) (A) (A) (A) (A) (A)
                 (A) (A) (A) (A) (A) (A) (A) (A) (A) (A) (A) (A)
                 (A) (A) (A) (A)
       Virtual   (A) (A) (A) (A) (A) (A) (A) (A) (A) (A) (A) (A)
                 (A) (A) (A) (A) (A) (A) (A) (A) (A) (A) (A) (A)
                 (A) (A) (A) (A) (A) (A) (A) (A) (A) (A) (A) (A)
                 (A) (A) (A) (A) (A) (A) (A) (A) (A) (A) (A) (A)
                 (A) (A) (A) (A) (A) (A) (A) (A) (A) (A) (A) (A)
                 (A) (A) (A) (A) (A) (A) (A) (A) (A) (A) (A) (A)
                 (A) (A) (A) (A) (A) (A) (A) (A) (A) (A) (A) (A)
                 (A) (A) (A) (A) (A) (A) (A) (A) (A) (A) (A) (A)
                 (A) (A) (A) (A) (A) (A) (A) (A) (A) (A) (A) (A)
                 (A) (A) (A) (A) (A) (A) (A) (A) (A) (A) (A) (A)
                 (A) (A) (A) (A) (A) (A) (A) (A) (A) (A) (A) (A)
                 (A) (A) (A) (A) (A) (A) (A) (A) (A) (A) (A) (A)
                 (A) (A) (A) (A) (A) (A) (A) (A) (A) (A) (A) (A)
                 (A) (A) (A) (A) (A) (A) (A) (A) (A) (A) (A) (A)
                 (A) (A) (A) (A) (A) (A) (A) (A) (A) (A) (A) (A)
                 (A) (A) (A) (A) (A) (A) (A) (A) (A) (A) (A) (A)
                 (A) (A) (A) (A) (A) (A) (A) (A) (A) (A) (A) (A)
                 (A) (A) (A) (A) (A) (A) (A) (A) (A) (A) (A) (A)
                 (A) (A) (A) (A) (A) (A) (A) (A) (A) (A) (A) (A)
                 (A) (A) (A) (A) (A) (A) (A) (A) (A) (A) (A) (A)
                 (A) (A) (A) (A) (A) (A) (A) (A) (A) (A) (A) (A)
                 (A) (A) (A) (A) (A) (A) (A) (A) (A) (A) (A) (A)
                 (A) (A) (A) (A) (A) (A) (A) (A) (A) (A) (A) (A)
                 (A) (A) (A) (A) (A) (A) (A) (A) (A) (A) (A) (A)
                 (A) (A) (A) (A) (A) (A) (A) (A) (A) (A) (A) (A)
                 (A) (A) (A) (A)
 The electronic state is 1-A.
 Alpha  occ. eigenvalues --  -19.17799 -19.16842 -14.44994 -10.33368 -10.33086
 Alpha  occ. eigenvalues --  -10.32784 -10.32453 -10.26384 -10.25536 -10.25243
 Alpha  occ. eigenvalues --  -10.24794 -10.24414 -10.24224 -10.23709  -1.11237
 Alpha  occ. eigenvalues --   -1.10583  -1.08666  -0.91451  -0.90553  -0.83946
 Alpha  occ. eigenvalues --   -0.82687  -0.81662  -0.78492  -0.73797  -0.72363
 Alpha  occ. eigenvalues --   -0.68717  -0.61521  -0.58291  -0.57080  -0.55143
 Alpha  occ. eigenvalues --   -0.54652  -0.53992  -0.52448  -0.51729  -0.50866
 Alpha  occ. eigenvalues --   -0.49683  -0.49503  -0.49225  -0.48710  -0.47972
 Alpha  occ. eigenvalues --   -0.47352  -0.45309  -0.45073  -0.44121  -0.43365
 Alpha  occ. eigenvalues --   -0.42090  -0.42024  -0.41391  -0.32542  -0.32150
 Alpha  occ. eigenvalues --   -0.31098  -0.24927
 Alpha virt. eigenvalues --   -0.03522   0.02497   0.06193   0.07992   0.08352
 Alpha virt. eigenvalues --    0.09639   0.10692   0.11351   0.12469   0.13329
 Alpha virt. eigenvalues --    0.13805   0.14798   0.15514   0.16392   0.16929
 Alpha virt. eigenvalues --    0.17386   0.17794   0.18018   0.18537   0.19241
 Alpha virt. eigenvalues --    0.19774   0.21887   0.22621   0.23325   0.23823
 Alpha virt. eigenvalues --    0.24056   0.24668   0.25595   0.26327   0.26708
 Alpha virt. eigenvalues --    0.27410   0.28030   0.28387   0.29619   0.30170
 Alpha virt. eigenvalues --    0.31478   0.31844   0.32206   0.33338   0.33956
 Alpha virt. eigenvalues --    0.34626   0.35628   0.36678   0.37413   0.38512
 Alpha virt. eigenvalues --    0.39600   0.40843   0.41319   0.41735   0.42398
 Alpha virt. eigenvalues --    0.43923   0.44851   0.45498   0.46141   0.46479
 Alpha virt. eigenvalues --    0.47250   0.47628   0.47790   0.48464   0.49131
 Alpha virt. eigenvalues --    0.49642   0.50486   0.51188   0.51226   0.51548
 Alpha virt. eigenvalues --    0.52210   0.52579   0.53206   0.53565   0.54168
 Alpha virt. eigenvalues --    0.54238   0.55157   0.55709   0.56523   0.58113
 Alpha virt. eigenvalues --    0.58349   0.59962   0.61034   0.61887   0.63130
 Alpha virt. eigenvalues --    0.64158   0.64869   0.66196   0.66961   0.67414
 Alpha virt. eigenvalues --    0.68693   0.69121   0.70385   0.70709   0.71927
 Alpha virt. eigenvalues --    0.72799   0.74899   0.75226   0.76118   0.77489
 Alpha virt. eigenvalues --    0.79000   0.80858   0.83536   0.86809   0.87519
 Alpha virt. eigenvalues --    0.91986   0.96121   1.02483   1.04317   1.21681
 Alpha virt. eigenvalues --    1.24067   1.27245   1.27991   1.28862   1.30080
 Alpha virt. eigenvalues --    1.31944   1.33210   1.34559   1.35152   1.36310
 Alpha virt. eigenvalues --    1.36911   1.37807   1.38392   1.38784   1.39375
 Alpha virt. eigenvalues --    1.39867   1.40012   1.40618   1.41323   1.42140
 Alpha virt. eigenvalues --    1.43188   1.43209   1.44153   1.45575   1.47101
 Alpha virt. eigenvalues --    1.48110   1.49314   1.49392   1.50124   1.50828
 Alpha virt. eigenvalues --    1.51345   1.52081   1.53024   1.55699   1.59039
 Alpha virt. eigenvalues --    1.59694   1.59872   1.60988   1.61679   1.62012
 Alpha virt. eigenvalues --    1.62538   1.62802   1.63230   1.64438   1.65555
 Alpha virt. eigenvalues --    1.66189   1.66917   1.67469   1.68045   1.68701
 Alpha virt. eigenvalues --    1.68999   1.69672   1.70305   1.70907   1.72460
 Alpha virt. eigenvalues --    1.74120   1.74504   1.75375   1.76370   1.78465
 Alpha virt. eigenvalues --    1.81511   1.82885   1.83645   1.85468   1.86380
 Alpha virt. eigenvalues --    1.86438   1.87794   1.88593   1.89144   1.90165
 Alpha virt. eigenvalues --    1.91245   1.94236   1.94930   1.98803   1.99721
 Alpha virt. eigenvalues --    2.01568   2.03722   2.05751   2.06794   2.09249
 Alpha virt. eigenvalues --    2.09791   2.11235   2.15715   2.17398   2.19439
 Alpha virt. eigenvalues --    2.20512   2.21126   2.22063   2.22881   2.26285
 Alpha virt. eigenvalues --    2.26648   2.27262   2.29066   2.30760   2.32069
 Alpha virt. eigenvalues --    2.33199   2.34306   2.36821   2.37550   2.38805
 Alpha virt. eigenvalues --    2.39450   2.40106   2.41262   2.42646   2.44955
 Alpha virt. eigenvalues --    2.45362   2.46990   2.48650   2.49266   2.51154
 Alpha virt. eigenvalues --    2.52328   2.53711   2.54383   2.56265   2.57169
 Alpha virt. eigenvalues --    2.58596   2.60791   2.61663   2.62197   2.63316
 Alpha virt. eigenvalues --    2.64629   2.65163   2.66506   2.67245   2.68356
 Alpha virt. eigenvalues --    2.71336   2.71719   2.73910   2.74426   2.75423
 Alpha virt. eigenvalues --    2.76295   2.77250   2.77885   2.78203   2.78811
 Alpha virt. eigenvalues --    2.80663   2.81153   2.83194   2.83616   2.85007
 Alpha virt. eigenvalues --    2.85469   2.86236   2.88560   2.88922   2.92126
 Alpha virt. eigenvalues --    2.97062   2.98376   3.01042   3.06971   3.10485
 Alpha virt. eigenvalues --    3.12055   3.13537   3.18186   3.19346   3.21351
 Alpha virt. eigenvalues --    3.22207   3.23038   3.24897   3.25919   3.26244
 Alpha virt. eigenvalues --    3.29418   3.30264   3.31953   3.34681   3.36459
 Alpha virt. eigenvalues --    3.38214   3.38563   3.38972   3.39230   3.41304
 Alpha virt. eigenvalues --    3.41784   3.43517   3.44568   3.47458   3.48003
 Alpha virt. eigenvalues --    3.49762   3.50270   3.56070   3.58233   3.59663
 Alpha virt. eigenvalues --    3.61388   3.90850   4.00689   4.32749   4.35804
 Alpha virt. eigenvalues --   21.68645  21.80772  22.07570  22.09853  22.11241
 Alpha virt. eigenvalues --   22.14397  22.14783  22.16983  22.18667  22.24891
 Alpha virt. eigenvalues --   22.26794  31.91031  43.64080  43.66894
          Condensed to atoms (all electrons):
               1          2          3          4          5          6
     1  O    7.930870   0.000000  -0.000158   0.000019   0.019494   0.007705
     2  O    0.000000   7.984657   0.000359   0.000010  -0.191576   0.001440
     3  N   -0.000158   0.000359   6.355841   0.367844  -0.120970   0.330130
     4  H    0.000019   0.000010   0.367844   0.413880   0.015880  -0.045362
     5  C    0.019494  -0.191576  -0.120970   0.015880   7.218866  -0.079386
     6  C    0.007705   0.001440   0.330130  -0.045362  -0.079386   5.544821
     7  C   -0.000019  -0.051321   0.394354  -0.036265   0.483822  -0.136252
     8  C   -0.000820   0.695458   0.004177  -0.000929  -0.382225   0.035552
     9  C    0.001422   0.029123   0.017446   0.000282  -0.765092  -0.038939
    10  H    0.007317   0.000023  -0.001047   0.000026  -0.102191   0.028678
    11  H    0.009383   0.000099   0.003101   0.000041  -0.086515  -0.017929
    12  C   -0.231979  -0.003445  -0.087967   0.014293   0.195539  -0.029824
    13  C    0.712692  -0.000012   0.001586   0.000593   0.086418   0.104463
    14  C   -0.000007  -0.006343  -0.032353  -0.010573  -0.086305   0.009877
    15  H   -0.000000   0.004076   0.004418   0.002463   0.022938   0.006279
    16  H    0.000000   0.002332  -0.000768   0.000803  -0.005296  -0.001439
    17  H   -0.000000   0.004109  -0.001689   0.000901  -0.010950  -0.001082
    18  C    0.000339  -0.097169  -0.000474   0.000021  -0.241311  -0.000189
    19  H    0.000001   0.006867   0.000009  -0.000001   0.023844   0.000010
    20  H    0.000217   0.004385   0.000102   0.000001   0.045298  -0.001245
    21  H   -0.000011   0.000631   0.000010  -0.000001   0.001623   0.000169
    22  C   -0.105476   0.000000  -0.000250   0.000117   0.003344  -0.026446
    23  H    0.001418   0.000000   0.000031  -0.000010  -0.000015   0.007228
    24  H    0.005194  -0.000000   0.000256  -0.000057  -0.000756  -0.022448
    25  H    0.006339   0.000000   0.000018  -0.000002  -0.000111  -0.000817
    26  C    0.000667   0.000011  -0.025237  -0.006844   0.000642   0.203269
    27  H   -0.000054  -0.000000  -0.002276   0.000517   0.000352  -0.031372
    28  H   -0.000205  -0.000000   0.000570   0.000680   0.000152  -0.050029
    29  H    0.000021   0.000000   0.002060   0.002391  -0.000302  -0.047376
               7          8          9         10         11         12
     1  O   -0.000019  -0.000820   0.001422   0.007317   0.009383  -0.231979
     2  O   -0.051321   0.695458   0.029123   0.000023   0.000099  -0.003445
     3  N    0.394354   0.004177   0.017446  -0.001047   0.003101  -0.087967
     4  H   -0.036265  -0.000929   0.000282   0.000026   0.000041   0.014293
     5  C    0.483822  -0.382225  -0.765092  -0.102191  -0.086515   0.195539
     6  C   -0.136252   0.035552  -0.038939   0.028678  -0.017929  -0.029824
     7  C    5.433574  -0.251618  -0.239399   0.014164  -0.005846   0.033539
     8  C   -0.251618   5.441545   0.247447  -0.010064   0.000896  -0.057837
     9  C   -0.239399   0.247447   6.445127   0.517068   0.454216  -0.160542
    10  H    0.014164  -0.010064   0.517068   0.549049  -0.054606  -0.104841
    11  H   -0.005846   0.000896   0.454216  -0.054606   0.583968  -0.018951
    12  C    0.033539  -0.057837  -0.160542  -0.104841  -0.018951   7.375900
    13  C    0.021807  -0.010544  -0.222559  -0.000188  -0.010360  -0.534589
    14  C    0.297806  -0.031121   0.003011   0.000314  -0.000484   0.001899
    15  H   -0.087314   0.005289   0.001045  -0.000002   0.000034  -0.001769
    16  H   -0.023110  -0.006314  -0.000247  -0.000054   0.000162   0.000307
    17  H   -0.018755  -0.001494   0.001035   0.000065  -0.000058   0.000143
    18  C   -0.002534   0.326514  -0.001642   0.007314  -0.015949   0.000951
    19  H    0.000113  -0.053358  -0.002618   0.000556   0.000193  -0.000135
    20  H    0.004675  -0.073954  -0.006504  -0.008252   0.003277   0.006879
    21  H   -0.000479  -0.024519  -0.009765  -0.000127   0.000672  -0.002156
    22  C    0.000120  -0.000047   0.010979  -0.002120   0.004195  -0.242870
    23  H   -0.000008   0.000001  -0.001921  -0.000139   0.000179  -0.011147
    24  H   -0.000027   0.000014   0.002137   0.000155  -0.000264   0.065411
    25  H    0.000012   0.000001   0.000306   0.000014  -0.000129   0.018122
    26  C    0.002448   0.000894   0.020578   0.000208  -0.000705  -0.086173
    27  H   -0.000803  -0.000015  -0.000590   0.000035  -0.000002  -0.016942
    28  H   -0.000786   0.000000   0.000141   0.000013  -0.000087  -0.007357
    29  H    0.002880   0.000000  -0.000447  -0.000015   0.000076   0.022945
              13         14         15         16         17         18
     1  O    0.712692  -0.000007  -0.000000   0.000000  -0.000000   0.000339
     2  O   -0.000012  -0.006343   0.004076   0.002332   0.004109  -0.097169
     3  N    0.001586  -0.032353   0.004418  -0.000768  -0.001689  -0.000474
     4  H    0.000593  -0.010573   0.002463   0.000803   0.000901   0.000021
     5  C    0.086418  -0.086305   0.022938  -0.005296  -0.010950  -0.241311
     6  C    0.104463   0.009877   0.006279  -0.001439  -0.001082  -0.000189
     7  C    0.021807   0.297806  -0.087314  -0.023110  -0.018755  -0.002534
     8  C   -0.010544  -0.031121   0.005289  -0.006314  -0.001494   0.326514
     9  C   -0.222559   0.003011   0.001045  -0.000247   0.001035  -0.001642
    10  H   -0.000188   0.000314  -0.000002  -0.000054   0.000065   0.007314
    11  H   -0.010360  -0.000484   0.000034   0.000162  -0.000058  -0.015949
    12  C   -0.534589   0.001899  -0.001769   0.000307   0.000143   0.000951
    13  C    5.629958   0.000156  -0.000044  -0.000006  -0.000005   0.001640
    14  C    0.000156   5.018714   0.389814   0.413303   0.408371   0.000706
    15  H   -0.000044   0.389814   0.582035  -0.027179  -0.025513   0.000213
    16  H   -0.000006   0.413303  -0.027179   0.508100  -0.025500  -0.000161
    17  H   -0.000005   0.408371  -0.025513  -0.025500   0.503119   0.000153
    18  C    0.001640   0.000706   0.000213  -0.000161   0.000153   5.293021
    19  H   -0.000012   0.000026  -0.000004   0.000040  -0.000040   0.397666
    20  H    0.001078   0.000121  -0.000014  -0.000026  -0.000003   0.379742
    21  H   -0.000162  -0.000167  -0.000005   0.000007  -0.000009   0.401844
    22  C    0.262706  -0.000003   0.000002  -0.000000  -0.000000   0.000027
    23  H   -0.020496  -0.000001   0.000000  -0.000000   0.000000  -0.000001
    24  H   -0.101903   0.000003   0.000000  -0.000000   0.000000  -0.000000
    25  H   -0.031427   0.000000   0.000000   0.000000  -0.000000  -0.000000
    26  C   -0.052319   0.000314   0.000355  -0.000010  -0.000044   0.000001
    27  H    0.006699  -0.000080  -0.000008   0.000003  -0.000004  -0.000000
    28  H   -0.001179   0.000032  -0.000006  -0.000002   0.000001   0.000000
    29  H   -0.001559  -0.000067   0.000095  -0.000001  -0.000001  -0.000000
              19         20         21         22         23         24
     1  O    0.000001   0.000217  -0.000011  -0.105476   0.001418   0.005194
     2  O    0.006867   0.004385   0.000631   0.000000   0.000000  -0.000000
     3  N    0.000009   0.000102   0.000010  -0.000250   0.000031   0.000256
     4  H   -0.000001   0.000001  -0.000001   0.000117  -0.000010  -0.000057
     5  C    0.023844   0.045298   0.001623   0.003344  -0.000015  -0.000756
     6  C    0.000010  -0.001245   0.000169  -0.026446   0.007228  -0.022448
     7  C    0.000113   0.004675  -0.000479   0.000120  -0.000008  -0.000027
     8  C   -0.053358  -0.073954  -0.024519  -0.000047   0.000001   0.000014
     9  C   -0.002618  -0.006504  -0.009765   0.010979  -0.001921   0.002137
    10  H    0.000556  -0.008252  -0.000127  -0.002120  -0.000139   0.000155
    11  H    0.000193   0.003277   0.000672   0.004195   0.000179  -0.000264
    12  C   -0.000135   0.006879  -0.002156  -0.242870  -0.011147   0.065411
    13  C   -0.000012   0.001078  -0.000162   0.262706  -0.020496  -0.101903
    14  C    0.000026   0.000121  -0.000167  -0.000003  -0.000001   0.000003
    15  H   -0.000004  -0.000014  -0.000005   0.000002   0.000000   0.000000
    16  H    0.000040  -0.000026   0.000007  -0.000000  -0.000000  -0.000000
    17  H   -0.000040  -0.000003  -0.000009  -0.000000   0.000000   0.000000
    18  C    0.397666   0.379742   0.401844   0.000027  -0.000001  -0.000000
    19  H    0.510385  -0.025428  -0.010292  -0.000000   0.000000   0.000000
    20  H   -0.025428   0.540285  -0.022269   0.000042  -0.000000  -0.000001
    21  H   -0.010292  -0.022269   0.490434  -0.000010   0.000000   0.000000
    22  C   -0.000000   0.000042  -0.000010   5.443583   0.398842   0.395909
    23  H    0.000000  -0.000000   0.000000   0.398842   0.496690  -0.028066
    24  H    0.000000  -0.000001   0.000000   0.395909  -0.028066   0.551270
    25  H   -0.000000  -0.000001   0.000000   0.380194  -0.008165  -0.022368
    26  C    0.000000  -0.000017   0.000002  -0.035535  -0.008807   0.015921
    27  H    0.000000   0.000000  -0.000000  -0.010498   0.000762  -0.001955
    28  H   -0.000000  -0.000000   0.000000   0.002523   0.000331  -0.006324
    29  H    0.000000   0.000000  -0.000000   0.002141   0.000148   0.000546
              25         26         27         28         29
     1  O    0.006339   0.000667  -0.000054  -0.000205   0.000021
     2  O    0.000000   0.000011  -0.000000  -0.000000   0.000000
     3  N    0.000018  -0.025237  -0.002276   0.000570   0.002060
     4  H   -0.000002  -0.006844   0.000517   0.000680   0.002391
     5  C   -0.000111   0.000642   0.000352   0.000152  -0.000302
     6  C   -0.000817   0.203269  -0.031372  -0.050029  -0.047376
     7  C    0.000012   0.002448  -0.000803  -0.000786   0.002880
     8  C    0.000001   0.000894  -0.000015   0.000000   0.000000
     9  C    0.000306   0.020578  -0.000590   0.000141  -0.000447
    10  H    0.000014   0.000208   0.000035   0.000013  -0.000015
    11  H   -0.000129  -0.000705  -0.000002  -0.000087   0.000076
    12  C    0.018122  -0.086173  -0.016942  -0.007357   0.022945
    13  C   -0.031427  -0.052319   0.006699  -0.001179  -0.001559
    14  C    0.000000   0.000314  -0.000080   0.000032  -0.000067
    15  H    0.000000   0.000355  -0.000008  -0.000006   0.000095
    16  H    0.000000  -0.000010   0.000003  -0.000002  -0.000001
    17  H   -0.000000  -0.000044  -0.000004   0.000001  -0.000001
    18  C   -0.000000   0.000001  -0.000000   0.000000  -0.000000
    19  H   -0.000000   0.000000   0.000000  -0.000000   0.000000
    20  H   -0.000001  -0.000017   0.000000  -0.000000   0.000000
    21  H    0.000000   0.000002  -0.000000   0.000000  -0.000000
    22  C    0.380194  -0.035535  -0.010498   0.002523   0.002141
    23  H   -0.008165  -0.008807   0.000762   0.000331   0.000148
    24  H   -0.022368   0.015921  -0.001955  -0.006324   0.000546
    25  H    0.493575   0.002022   0.000130   0.000481  -0.000033
    26  C    0.002022   5.222670   0.424666   0.434681   0.385432
    27  H    0.000130   0.424666   0.482009  -0.028665  -0.016322
    28  H    0.000481   0.434681  -0.028665   0.502800  -0.023894
    29  H   -0.000033   0.385432  -0.016322  -0.023894   0.518176
 Mulliken charges:
               1
     1  O   -0.364368
     2  O   -0.383716
     3  N   -0.209123
     4  H    0.279281
     5  C   -0.045210
     6  C    0.250515
     7  C    0.165222
     8  C    0.147070
     9  C   -0.301098
    10  H    0.158650
    11  H    0.151396
    12  C   -0.137403
    13  C    0.157566
    14  C   -0.376962
    15  H    0.122805
    16  H    0.165055
    17  H    0.167249
    18  C   -0.450722
    19  H    0.152180
    20  H    0.151608
    21  H    0.174581
    22  C   -0.481469
    23  H    0.173146
    24  H    0.147353
    25  H    0.161839
    26  C   -0.499092
    27  H    0.194412
    28  H    0.176128
    29  H    0.153107
 Sum of Mulliken charges =  -0.00000
 Mulliken charges with hydrogens summed into heavy atoms:
               1
     1  O   -0.364368
     2  O   -0.383716
     3  N    0.070158
     5  C   -0.045210
     6  C    0.250515
     7  C    0.165222
     8  C    0.147070
     9  C    0.008947
    12  C   -0.137403
    13  C    0.157566
    14  C    0.078147
    18  C    0.027647
    22  C    0.000869
    26  C    0.024555
 Electronic spatial extent (au):  <R**2>=           3214.1522
 Charge=             -0.0000 electrons
 Dipole moment (field-independent basis, Debye):
    X=              4.1174    Y=              7.7185    Z=              0.3110  Tot=              8.7536
 Quadrupole moment (field-independent basis, Debye-Ang):
   XX=            -98.5398   YY=            -78.1024   ZZ=            -84.9454
   XY=             12.1449   XZ=              3.4676   YZ=             -2.4959
 Traceless Quadrupole moment (field-independent basis, Debye-Ang):
   XX=            -11.3439   YY=              9.0934   ZZ=              2.2505
   XY=             12.1449   XZ=              3.4676   YZ=             -2.4959
 Octapole moment (field-independent basis, Debye-Ang**2):
  XXX=            112.8745  YYY=             65.5898  ZZZ=              0.8836  XYY=            -34.5615
  XXY=             33.0210  XXZ=             -2.6856  XZZ=              0.0351  YZZ=             -1.1446
  YYZ=              5.1176  XYZ=             -5.2076
 Hexadecapole moment (field-independent basis, Debye-Ang**3):
 XXXX=          -3083.1078 YYYY=          -1303.0211 ZZZZ=           -139.7513 XXXY=             29.9327
 XXXZ=             35.9271 YYYX=             86.9795 YYYZ=            -18.7689 ZZZX=             -3.8420
 ZZZY=              1.0433 XXYY=           -693.2279 XXZZ=           -478.4164 YYZZ=           -246.5863
 XXYZ=            -11.5634 YYXZ=             10.8132 ZZXY=              0.5241
 N-N= 8.980488118512D+02 E-N=-3.271952318198D+03  KE= 6.305549824240D+02
 Leave Link  601 at Fri Jan 23 15:07:04 2026, MaxMem=  2147483648 cpu:               0.7 elap:               0.1
 (Enter /data/home/wyx/g16/l9999.exe)
 Electronic transition elements 
                 1             2             3             4             5 
      1  -0.633211D+03 -0.633174D+03 -0.633168D+03 -0.633138D+03 -0.633123D+03
      2   0.143468D+01  0.303143D-01 -0.934582D-01 -0.271429D+00  0.441772D+00
      3   0.369173D+00 -0.303477D-01  0.344894D-01  0.123105D+01 -0.150737D+01
      4   0.119260D+00  0.366036D-01 -0.313764D-01 -0.686039D-01  0.607423D-01
      5  -0.145410D+00 -0.484848D-02  0.126315D-01  0.394774D-01 -0.817516D-01
      6  -0.407046D-01  0.455493D-02 -0.317247D-02 -0.210161D+00  0.286259D+00
      7  -0.118417D-01 -0.196504D-02  0.125466D-02  0.873488D-02 -0.120556D-01
      8  -0.133561D+00  0.763968D+00  0.518238D+00 -0.689628D-02  0.809704D-01
      9  -0.568155D-01  0.148891D+00 -0.833793D+00  0.201076D-01 -0.587013D-01
     10   0.148054D+01  0.501304D-01 -0.166495D+00 -0.418229D-02  0.269303D+00
     11  -0.161992D+00  0.271383D-01 -0.109623D-01  0.998920D+00 -0.671033D+00
     12   0.232701D+00 -0.542125D-02 -0.365354D-01 -0.630638D-01  0.330285D+00
     13  -0.116583D-01 -0.148228D-01  0.262860D-01 -0.171110D-01  0.390806D-01
     14   0.411112D+00  0.226221D-02 -0.697323D-01  0.411942D+00 -0.150059D+00
     15  -0.339791D-01 -0.107043D-01  0.486168D-01  0.589223D-01 -0.200285D-01
     16   0.207281D-01  0.670569D-01  0.199612D-01  0.450380D-01 -0.373096D-02
                 6 
      1  -0.633106D+03
      2   0.593571D-01
      3  -0.172646D+00
      4  -0.454747D-01
      5  -0.128061D-01
      6   0.352682D-01
      7   0.296421D-01
      8  -0.384561D-01
      9  -0.579629D-02
     10  -0.412158D-01
     11   0.470659D-01
     12   0.961221D-01
     13  -0.815935D-01
     14  -0.195950D-01
     15   0.314282D-01
     16  -0.112266D+00
 1\1\GINC-CN012\SP\RCAM-B3LYP TD-FC\TZVP\C11H15N1O2\WYX\23-Jan-2026\0\\
 #p CAM-B3LYP TZVP em=gd3bj td(nstates=6,root=1) scrf=(Solvent=TetraHyd
 roFuran)\\Title Card Required\\0,1\O,0,2.840355,-1.575566,0.006876\O,0
 ,-3.430456,-1.65648,-0.200573\N,0,-0.673261,1.51926,-0.136562\H,0,-0.9
 85797,2.480907,-0.184817\C,0,-1.251081,-0.76442,-0.195008\C,0,0.673027
 ,1.344959,-0.001164\C,0,-1.646543,0.587748,-0.223477\C,0,-2.208444,-1.
 851824,-0.20537\C,0,0.187435,-1.075242,-0.146137\H,0,0.389393,-1.86915
 9,0.584973\H,0,0.483471,-1.587317,-1.083615\C,0,1.146336,0.026389,0.05
 6495\C,0,2.518909,-0.404196,0.25469\C,0,-3.037078,1.109507,-0.363395\H
 ,0,-3.030155,2.198859,-0.420899\H,0,-3.51566,0.716076,-1.258921\H,0,-3
 .660503,0.807978,0.476504\C,0,-1.700512,-3.276547,-0.182859\H,0,-2.493
 575,-3.925694,-0.546499\H,0,-0.806587,-3.431445,-0.784002\H,0,-1.46450
 3,-3.572706,0.842713\C,0,3.575614,0.523342,0.805827\H,0,4.079,1.058186
 ,-0.002651\H,0,3.181872,1.256761,1.504771\H,0,4.320435,-0.088933,1.310
 142\C,0,1.471434,2.607239,0.023709\H,0,1.768788,2.895985,1.034213\H,0,
 2.376132,2.51428,-0.572765\H,0,0.89194,3.43205,-0.392194\\Version=ES64
 L-G16RevA.03\State=1-A\HF=-633.3169921\RMSD=6.519e-09\PG=C01 [X(C11H15
 N1O2)]\\@


 10 WHATSOEVER THY HAND FINDETH TO DO, DO IT WITH THY  
 MIGHT. FOR THERE IS NO WORK, NOR DEVICE, NOR KNOWLEDGE, NOR  
 WISDOM, IN THE GRAVE, WHITHER THOU GOEST.                    
 11 I RETURNED AND SAW UNDER THE SUN, THAT THE RACE IS NOT TO 
 THE SWIFT, NOR THE BATTLE TO THE STRONG, NEITHER YET BREAD TO
 THE WISE, NOR YET RICHES TO MEN OF UNDERSTANDING, NOR YET    
 FAVOR TO MEN OF SKILL. BUT TIME AND CHANCE HAPPEN TO THEM ALL.
 12 FOR MAN ALSO KNOWETH NOT HIS TIME. AS THE FISHES   
 THAT ARE TAKEN IN AN EVIL NET, AND AS THE BIRDS THAT ARE     
 CAUGHT IN THE SNARE. SO ARE THE SONS OF MEN SNARED IN AN EVIL
 TIME, WHEN IT FALLETH SUDDENLY UPON THEM.
                                         ECCLESIASTES 9
 Job cpu time:       0 days  0 hours 44 minutes 33.6 seconds.
 Elapsed time:       0 days  0 hours  2 minutes 48.4 seconds.
 File lengths (MBytes):  RWF=    830 Int=      0 D2E=      0 Chk=     34 Scr=      1
 Normal termination of Gaussian 16 at Fri Jan 23 15:07:06 2026.
