 Entering Gaussian System, Link 0=g16
 Input=DDL-LR-3.gjf
 Output=DDL-LR-3.log
 Initial command:
 /data/home/wyx/g16/l1.exe "/scr/tmp/wyx/13106/Gau-1962276.inp" -scrdir="/scr/tmp/wyx/13106/"
 Entering Link 1 = /data/home/wyx/g16/l1.exe PID=   1962277.
  
 Copyright (c) 1988,1990,1992,1993,1995,1998,2003,2009,2016,
            Gaussian, Inc.  All Rights Reserved.
  
 This is part of the Gaussian(R) 16 program.  It is based on
 the Gaussian(R) 09 system (copyright 2009, Gaussian, Inc.),
 the Gaussian(R) 03 system (copyright 2003, Gaussian, Inc.),
 the Gaussian(R) 98 system (copyright 1998, Gaussian, Inc.),
 the Gaussian(R) 94 system (copyright 1995, Gaussian, Inc.),
 the Gaussian 92(TM) system (copyright 1992, Gaussian, Inc.),
 the Gaussian 90(TM) system (copyright 1990, Gaussian, Inc.),
 the Gaussian 88(TM) system (copyright 1988, Gaussian, Inc.),
 the Gaussian 86(TM) system (copyright 1986, Carnegie Mellon
 University), and the Gaussian 82(TM) system (copyright 1983,
 Carnegie Mellon University). Gaussian is a federally registered
 trademark of Gaussian, Inc.
  
 This software contains proprietary and confidential information,
 including trade secrets, belonging to Gaussian, Inc.
  
 This software is provided under written license and may be
 used, copied, transmitted, or stored only in accord with that
 written license.
  
 The following legend is applicable only to US Government
 contracts under FAR:
  
                    RESTRICTED RIGHTS LEGEND
  
 Use, reproduction and disclosure by the US Government is
 subject to restrictions as set forth in subparagraphs (a)
 and (c) of the Commercial Computer Software - Restricted
 Rights clause in FAR 52.227-19.
  
 Gaussian, Inc.
 340 Quinnipiac St., Bldg. 40, Wallingford CT 06492
  
  
 ---------------------------------------------------------------
 Warning -- This program may not be used in any manner that
 competes with the business of Gaussian, Inc. or will provide
 assistance to any competitor of Gaussian, Inc.  The licensee
 of this program is prohibited from giving any competitor of
 Gaussian, Inc. access to this program.  By using this program,
 the user acknowledges that Gaussian, Inc. is engaged in the
 business of creating and licensing software in the field of
 computational chemistry and represents and warrants to the
 licensee that it is not a competitor of Gaussian, Inc. and that
 it will not use this program in any manner prohibited above.
 ---------------------------------------------------------------
  

 Cite this work as:
 Gaussian 16, Revision A.03,
 M. J. Frisch, G. W. Trucks, H. B. Schlegel, G. E. Scuseria, 
 M. A. Robb, J. R. Cheeseman, G. Scalmani, V. Barone, 
 G. A. Petersson, H. Nakatsuji, X. Li, M. Caricato, A. V. Marenich, 
 J. Bloino, B. G. Janesko, R. Gomperts, B. Mennucci, H. P. Hratchian, 
 J. V. Ortiz, A. F. Izmaylov, J. L. Sonnenberg, D. Williams-Young, 
 F. Ding, F. Lipparini, F. Egidi, J. Goings, B. Peng, A. Petrone, 
 T. Henderson, D. Ranasinghe, V. G. Zakrzewski, J. Gao, N. Rega, 
 G. Zheng, W. Liang, M. Hada, M. Ehara, K. Toyota, R. Fukuda, 
 J. Hasegawa, M. Ishida, T. Nakajima, Y. Honda, O. Kitao, H. Nakai, 
 T. Vreven, K. Throssell, J. A. Montgomery, Jr., J. E. Peralta, 
 F. Ogliaro, M. J. Bearpark, J. J. Heyd, E. N. Brothers, K. N. Kudin, 
 V. N. Staroverov, T. A. Keith, R. Kobayashi, J. Normand, 
 K. Raghavachari, A. P. Rendell, J. C. Burant, S. S. Iyengar, 
 J. Tomasi, M. Cossi, J. M. Millam, M. Klene, C. Adamo, R. Cammi, 
 J. W. Ochterski, R. L. Martin, K. Morokuma, O. Farkas, 
 J. B. Foresman, and D. J. Fox, Gaussian, Inc., Wallingford CT, 2016.
 
 ******************************************
 Gaussian 16:  ES64L-G16RevA.03 25-Dec-2016
                23-Jan-2026 
 ******************************************
 %nprocshared=16
 Will use up to   16 processors via shared memory.
 %mem=16GB
 %chk=DDL-LR-3.chk
 ----------------------------------------------------------------------
 #p CAM-B3LYP TZVP em=gd3bj td(nstates=6,root=1) scrf=(Solvent=TetraHyd
 roFuran)
 ----------------------------------------------------------------------
 1/38=1,172=1/1;
 2/12=2,17=6,18=5,40=1/2;
 3/5=19,7=101,11=9,25=1,30=1,70=2201,72=20,74=-40,124=41/1,2,3,8;
 4//1;
 5/5=2,38=5,53=20/2;
 8/6=1,10=1,107=1,108=6/1;
 9/8=1,41=6,42=1,70=2/14;
 6/7=2,8=2,9=2,10=2/1;
 99/5=1,9=1/99;
 Leave Link    1 at Fri Jan 23 15:19:46 2026, MaxMem=  2147483648 cpu:               0.4 elap:               0.1
 (Enter /data/home/wyx/g16/l101.exe)
 -------------------
 Title Card Required
 -------------------
 Symbolic Z-matrix:
 Charge =  0 Multiplicity = 1
 O                     2.83969  -1.57338   0.03785 
 O                    -3.4292   -1.64879  -0.14129 
 N                    -0.66495   1.51775  -0.18569 
 H                    -0.97681   2.47835  -0.23522 
 C                    -1.24843  -0.76266  -0.20108 
 C                     0.679     1.33489  -0.02367 
 C                    -1.63861   0.57864  -0.23826 
 C                    -2.21189  -1.84646  -0.18277 
 C                     0.19431  -1.08267  -0.19021 
 H                     0.40643  -1.8884    0.52155 
 H                     0.47409  -1.56222  -1.14658 
 C                     1.14743   0.02585   0.04142 
 C                     2.51792  -0.40192   0.26995 
 C                    -3.02743   1.10513  -0.34909 
 H                    -3.02424   2.18953  -0.45401 
 H                    -3.54349   0.67593  -1.20365 
 H                    -3.61907   0.84563   0.52522 
 C                    -1.70857  -3.26806  -0.18514 
 H                    -2.51606  -3.92682  -0.48851 
 H                    -0.85814  -3.42479  -0.8429 
 H                    -1.3982   -3.56057   0.81864 
 C                     3.56637   0.52767   0.83189 
 H                     4.0722    1.06698   0.02821 
 H                     3.16389   1.25718   1.52987 
 H                     4.31009  -0.08328   1.33901 
 C                     1.46959   2.60008   0.02545 
 H                     1.71605   2.89592   1.04607 
 H                     2.40027   2.51042  -0.52619 
 H                     0.90775   3.42006  -0.42087 
 
 ITRead=  0  0  0  0  0  0  0  0  0  0  0  0  0  0  0  0  0  0  0  0
 ITRead=  0  0  0  0  0  0  0  0  0
 MicOpt= -1 -1 -1 -1 -1 -1 -1 -1 -1 -1 -1 -1 -1 -1 -1 -1 -1 -1 -1 -1
 MicOpt= -1 -1 -1 -1 -1 -1 -1 -1 -1
 NAtoms=     29 NQM=       29 NQMF=       0 NMMI=      0 NMMIF=      0
                NMic=       0 NMicF=      0.
                    Isotopes and Nuclear Properties:
 (Nuclear quadrupole moments (NQMom) in fm**2, nuclear magnetic moments (NMagM)
  in nuclear magnetons)

  Atom         1           2           3           4           5           6           7           8           9          10
 IAtWgt=          16          16          14           1          12          12          12          12          12           1
 AtmWgt=  15.9949146  15.9949146  14.0030740   1.0078250  12.0000000  12.0000000  12.0000000  12.0000000  12.0000000   1.0078250
 NucSpn=           0           0           2           1           0           0           0           0           0           1
 AtZEff=  -0.0000000  -0.0000000  -0.0000000  -0.0000000  -0.0000000  -0.0000000  -0.0000000  -0.0000000  -0.0000000  -0.0000000
 NQMom=    0.0000000   0.0000000   2.0440000   0.0000000   0.0000000   0.0000000   0.0000000   0.0000000   0.0000000   0.0000000
 NMagM=    0.0000000   0.0000000   0.4037610   2.7928460   0.0000000   0.0000000   0.0000000   0.0000000   0.0000000   2.7928460
 AtZNuc=   8.0000000   8.0000000   7.0000000   1.0000000   6.0000000   6.0000000   6.0000000   6.0000000   6.0000000   1.0000000

  Atom        11          12          13          14          15          16          17          18          19          20
 IAtWgt=           1          12          12          12           1           1           1          12           1           1
 AtmWgt=   1.0078250  12.0000000  12.0000000  12.0000000   1.0078250   1.0078250   1.0078250  12.0000000   1.0078250   1.0078250
 NucSpn=           1           0           0           0           1           1           1           0           1           1
 AtZEff=  -0.0000000  -0.0000000  -0.0000000  -0.0000000  -0.0000000  -0.0000000  -0.0000000  -0.0000000  -0.0000000  -0.0000000
 NQMom=    0.0000000   0.0000000   0.0000000   0.0000000   0.0000000   0.0000000   0.0000000   0.0000000   0.0000000   0.0000000
 NMagM=    2.7928460   0.0000000   0.0000000   0.0000000   2.7928460   2.7928460   2.7928460   0.0000000   2.7928460   2.7928460
 AtZNuc=   1.0000000   6.0000000   6.0000000   6.0000000   1.0000000   1.0000000   1.0000000   6.0000000   1.0000000   1.0000000

  Atom        21          22          23          24          25          26          27          28          29
 IAtWgt=           1          12           1           1           1          12           1           1           1
 AtmWgt=   1.0078250  12.0000000   1.0078250   1.0078250   1.0078250  12.0000000   1.0078250   1.0078250   1.0078250
 NucSpn=           1           0           1           1           1           0           1           1           1
 AtZEff=  -0.0000000  -0.0000000  -0.0000000  -0.0000000  -0.0000000  -0.0000000  -0.0000000  -0.0000000  -0.0000000
 NQMom=    0.0000000   0.0000000   0.0000000   0.0000000   0.0000000   0.0000000   0.0000000   0.0000000   0.0000000
 NMagM=    2.7928460   0.0000000   2.7928460   2.7928460   2.7928460   0.0000000   2.7928460   2.7928460   2.7928460
 AtZNuc=   1.0000000   6.0000000   1.0000000   1.0000000   1.0000000   6.0000000   1.0000000   1.0000000   1.0000000
 Leave Link  101 at Fri Jan 23 15:19:46 2026, MaxMem=  2147483648 cpu:               0.8 elap:               0.1
 (Enter /data/home/wyx/g16/l202.exe)
                          Input orientation:                          
 ---------------------------------------------------------------------
 Center     Atomic      Atomic             Coordinates (Angstroms)
 Number     Number       Type             X           Y           Z
 ---------------------------------------------------------------------
      1          8           0        2.839691   -1.573384    0.037849
      2          8           0       -3.429203   -1.648793   -0.141290
      3          7           0       -0.664952    1.517747   -0.185688
      4          1           0       -0.976814    2.478348   -0.235218
      5          6           0       -1.248428   -0.762655   -0.201081
      6          6           0        0.678995    1.334892   -0.023667
      7          6           0       -1.638610    0.578642   -0.238255
      8          6           0       -2.211890   -1.846455   -0.182765
      9          6           0        0.194308   -1.082668   -0.190208
     10          1           0        0.406434   -1.888397    0.521548
     11          1           0        0.474092   -1.562221   -1.146582
     12          6           0        1.147434    0.025849    0.041424
     13          6           0        2.517919   -0.401916    0.269951
     14          6           0       -3.027428    1.105125   -0.349093
     15          1           0       -3.024235    2.189528   -0.454009
     16          1           0       -3.543492    0.675929   -1.203654
     17          1           0       -3.619066    0.845626    0.525216
     18          6           0       -1.708565   -3.268057   -0.185138
     19          1           0       -2.516063   -3.926818   -0.488508
     20          1           0       -0.858139   -3.424790   -0.842902
     21          1           0       -1.398197   -3.560573    0.818638
     22          6           0        3.566365    0.527674    0.831886
     23          1           0        4.072200    1.066980    0.028207
     24          1           0        3.163894    1.257182    1.529871
     25          1           0        4.310090   -0.083283    1.339010
     26          6           0        1.469592    2.600083    0.025453
     27          1           0        1.716045    2.895922    1.046065
     28          1           0        2.400273    2.510419   -0.526187
     29          1           0        0.907750    3.420064   -0.420871
 ---------------------------------------------------------------------
                    Distance matrix (angstroms):
                    1          2          3          4          5
     1  O    0.000000
     2  O    6.271906   0.000000
     3  N    4.678417   4.203574   0.000000
     4  H    5.572864   4.801700   1.011170   0.000000
     5  C    4.174576   2.354696   2.353915   3.252544   0.000000
     6  C    3.623598   5.078730   1.365972   2.023351   2.854144
     7  C    4.976206   2.859562   1.353769   2.011682   1.397391
     8  C    5.063764   1.233954   3.702821   4.498009   1.450247
     9  C    2.700160   3.667795   2.738705   3.748918   1.477841
    10  H    2.500787   3.899856   3.640037   4.642686   2.127923
    11  H    2.645574   4.031602   3.421541   4.388839   2.121404
    12  C    2.328367   4.876824   2.358407   3.256334   2.533910
    13  C    1.236829   6.090327   3.744780   4.556783   3.812791
    14  C    6.461209   2.790819   2.403799   2.470572   2.583670
    15  H    6.984773   3.872273   2.467692   2.079235   3.454395
    16  H    6.880826   2.558517   3.167160   3.282441   2.888251
    17  H    6.914093   2.588900   3.111900   3.197739   2.955334
    18  C    4.858834   2.363162   4.898270   5.793025   2.547355
    19  H    5.873653   2.478666   5.758611   6.592389   3.420737
    20  H    4.228164   3.202623   4.989782   5.935520   2.766084
    21  H    4.745339   2.949805   5.228351   6.144652   2.981711
    22  C    2.360719   7.390673   4.463154   5.058094   5.090599
    23  H    2.913879   7.979674   4.763355   5.249180   5.631094
    24  H    3.216107   7.396377   4.203701   4.663931   5.152138
    25  H    2.464852   8.033602   5.444175   6.082064   5.807801
    26  C    4.392625   6.486828   2.402563   2.463264   4.329776
    27  H    4.717391   6.966909   3.014254   3.011236   4.871207
    28  H    4.145922   7.171470   3.239898   3.389750   4.912405
    29  H    5.373764   6.676873   2.479418   2.114918   4.710897
                    6          7          8          9         10
     6  C    0.000000
     7  C    2.447295   0.000000
     8  C    4.301569   2.492554   0.000000
     9  C    2.471286   2.474237   2.524523   0.000000
    10  H    3.280418   3.293294   2.711722   1.095807   0.000000
    11  H    3.113870   3.141952   2.867792   1.105849   1.701066
    12  C    1.391857   2.854092   3.852381   1.480173   2.108065
    13  C    2.546440   4.300756   4.966159   2.464617   2.594474
    14  C    3.727770   1.489391   3.066691   3.897597   4.637952
    15  H    3.824854   2.135758   4.125850   4.597377   5.417626
    16  H    4.433509   2.137764   3.029488   4.253338   5.015377
    17  H    4.360503   2.139246   3.119083   4.332663   4.866163
    18  C    5.187837   3.847702   1.508076   2.897736   2.622230
    19  H    6.173335   4.596925   2.124596   3.940087   3.703561
    20  H    5.068382   4.123372   2.181643   2.649375   2.412752
    21  H    5.384216   4.278776   2.145485   3.113496   2.478130
    22  C    3.117768   5.314091   6.328842   3.874099   3.989846
    23  H    3.404160   5.737842   6.929820   4.439227   4.734499
    24  H    2.931594   5.162435   6.439312   4.153554   4.302902
    25  H    4.129523   6.189745   6.925373   4.502992   4.377809
    26  C    1.492704   3.717080   5.776536   3.903270   4.639275
    27  H    2.157919   4.274690   6.279239   4.435452   4.987976
    28  H    2.144105   4.486340   6.353923   4.229591   4.941935
    29  H    2.134957   3.819814   6.125771   4.564734   5.414723
                   11         12         13         14         15
    11  H    0.000000
    12  C    2.094448   0.000000
    13  C    2.744103   1.453766   0.000000
    14  C    4.473406   4.329759   5.779728   0.000000
    15  H    5.176251   4.725440   6.160777   1.089471   0.000000
    16  H    4.599299   4.896694   6.330400   1.086649   1.767082
    17  H    5.034539   4.860618   6.267703   1.087102   1.766006
    18  C    2.932276   4.365533   5.126894   4.570668   5.620366
    19  H    3.868515   5.415313   6.192025   5.059781   6.137517
    20  H    2.310027   4.087941   4.666259   5.046761   6.030238
    21  H    3.370603   4.466175   5.061041   5.078063   6.109606
    22  C    4.224234   2.593817   1.509685   6.723561   6.917463
    23  H    4.608602   3.104575   2.152181   7.109749   7.200836
    24  H    4.727311   2.792448   2.181121   6.471947   6.564906
    25  H    4.804197   3.420239   2.110993   7.622413   7.884980
    26  C    4.437281   2.594363   3.189164   4.753775   4.537942
    27  H    5.121053   3.093532   3.481536   5.258703   5.021899
    28  H    4.547687   2.839873   3.021485   5.609470   5.434470
    29  H    5.053502   3.433928   4.204451   4.566149   4.120173
                   16         17         18         19         20
    16  H    0.000000
    17  H    1.738821   0.000000
    18  C    4.467590   4.590970   0.000000
    19  H    4.769940   5.002047   1.085381   0.000000
    20  H    4.914993   5.266015   1.086482   1.768146   0.000000
    21  H    5.161386   4.942969   1.090624   1.758519   1.752374
    22  C    7.396991   7.198997   6.577750   7.653879   6.164667
    23  H    7.724582   7.710486   7.228783   8.283129   6.726297
    24  H    7.266295   6.869298   6.867307   7.950448   6.612690
    25  H    8.289770   8.024752   6.977823   8.044187   6.529701
    26  C    5.508546   5.405768   6.676833   7.664857   6.517014
    27  H    6.136150   5.739199   7.158104   8.174071   7.081385
    28  H    6.257208   6.333200   7.098567   8.099988   6.778220
    29  H    5.287398   5.292908   7.185516   8.105785   7.081561
                   21         22         23         24         25
    21  H    0.000000
    22  C    6.431237   0.000000
    23  H    7.208625   1.092071   0.000000
    24  H    6.673027   1.086898   1.765274   0.000000
    25  H    6.704243   1.087920   1.760086   1.773990   0.000000
    26  C    6.841567   3.056415   3.020593   2.633878   4.122416
    27  H    7.171928   3.012998   3.151592   2.239599   3.961130
    28  H    7.286554   2.671219   2.277325   2.526083   3.722049
    29  H    7.455405   4.123537   3.968932   3.684242   5.191006
                   26         27         28         29
    26  C    0.000000
    27  H    1.090829   0.000000
    28  H    1.085594   1.757486   0.000000
    29  H    1.089606   1.754983   1.751048   0.000000
 Stoichiometry    C11H15NO2
 Framework group  C1[X(C11H15NO2)]
 Deg. of freedom    81
 Full point group                 C1      NOp   1
 Largest Abelian subgroup         C1      NOp   1
 Largest concise Abelian subgroup C1      NOp   1
                         Standard orientation:                         
 ---------------------------------------------------------------------
 Center     Atomic      Atomic             Coordinates (Angstroms)
 Number     Number       Type             X           Y           Z
 ---------------------------------------------------------------------
      1          8           0        2.283864   -2.285521   -0.272774
      2          8           0       -3.628794   -0.259588    0.249614
      3          7           0        0.018741    1.803487   -0.080893
      4          1           0        0.044530    2.814301   -0.088359
      5          6           0       -1.295506   -0.149085   -0.047289
      6          6           0        1.232151    1.176247   -0.071473
      7          6           0       -1.213821    1.245821   -0.030991
      8          6           0       -2.559858   -0.849562    0.070874
      9          6           0       -0.051265   -0.931727   -0.200093
     10          1           0       -0.050219   -1.792774    0.477690
     11          1           0       -0.048934   -1.434251   -1.185164
     12          6           0        1.237442   -0.215596   -0.068548
     13          6           0        2.400229   -1.085282    0.002238
     14          6           0       -2.348480    2.209377    0.017928
     15          1           0       -1.991833    3.234253   -0.078915
     16          1           0       -3.063812    2.014975   -0.776625
     17          1           0       -2.899599    2.123415    0.951025
     18          6           0       -2.566680   -2.356052    0.002052
     19          1           0       -3.575276   -2.693952   -0.213840
     20          1           0       -1.890891   -2.757926   -0.747782
     21          1           0       -2.271121   -2.779424    0.962709
     22          6           0        3.752032   -0.584057    0.450066
     23          1           0        4.324132   -0.209107   -0.401247
     24          1           0        3.692257    0.206202    1.193884
     25          1           0        4.295156   -1.429753    0.866462
     26          6           0        2.402572    2.102178   -0.101995
     27          1           0        2.837766    2.253473    0.886753
     28          1           0        3.186958    1.732026   -0.754866
     29          1           0        2.106233    3.081430   -0.476813
 ---------------------------------------------------------------------
 Rotational constants (GHZ):           1.0740376           0.4897956           0.3428618
 Leave Link  202 at Fri Jan 23 15:19:46 2026, MaxMem=  2147483648 cpu:               0.0 elap:               0.0
 (Enter /data/home/wyx/g16/l301.exe)
 Standard basis: TZVP (5D, 7F)
 Ernie: Thresh=  0.10000D-02 Tol=  0.10000D-05 Strict=F.
 There are   370 symmetry adapted cartesian basis functions of A   symmetry.
 There are   356 symmetry adapted basis functions of A   symmetry.
   356 basis functions,   610 primitive gaussians,   370 cartesian basis functions
    52 alpha electrons       52 beta electrons
       nuclear repulsion energy       899.1605564556 Hartrees.
 IExCor=20419 DFT=T Ex+Corr=CAM-B3LYP ExCW=0 ScaHFX=  1.000000
 ScaDFX=  1.000000  1.000000  1.000000  0.810000 ScalE2=  1.000000  1.000000
 IRadAn=      5 IRanWt=     -1 IRanGd=            0 ICorTp=0 IEmpDi=141
 HFx  wShort=  0.000000 wLong=  0.330000 cFull=  0.190000 cShort=  0.000000 cLong=  0.460000
 DFx  wShort=  0.000000 wLong=  0.330000 cFull=  0.190000 cShort=  0.000000 cLong=  0.460000
 NAtoms=   29 NActive=   29 NUniq=   29 SFac= 1.00D+00 NAtFMM=   60 NAOKFM=F Big=F
 Integral buffers will be    131072 words long.
 Raffenetti 1 integral format.
 Two-electron integral symmetry is turned on.
 R6Disp:  Grimme-D3(BJ) Dispersion energy=       -0.0261244882 Hartrees.
 Nuclear repulsion after empirical dispersion term =      899.1344319673 Hartrees.
 ------------------------------------------------------------------------------
 Polarizable Continuum Model (PCM)
 =================================
 Model                : PCM.
 Atomic radii         : UFF (Universal Force Field).
 Polarization charges : Total charges.
 Charge compensation  : None.
 Solution method      : On-the-fly selection.
 Cavity type          : Scaled VdW (van der Waals Surface) (Alpha=1.100).
 Cavity algorithm     : GePol (No added spheres)
                        Default sphere list used, NSphG=   29.
                        Lebedev-Laikov grids with approx.  5.0 points / Ang**2.
                        Smoothing algorithm: York/Karplus (Gamma=1.0000).
                        Polarization charges: spherical gaussians, with
                                              point-specific exponents (IZeta= 3).
                        Self-potential: point-specific (ISelfS= 7).
                        Self-field    : sphere-specific E.n sum rule (ISelfD= 2).
 Solvent              : TetraHydroFuran, Eps=   7.425700 Eps(inf)=   1.974025
 ------------------------------------------------------------------------------
 GePol: Number of generator spheres                  =      29
 GePol: Total number of spheres                      =      29
 GePol: Number of exposed spheres                    =      29 (100.00%)
 GePol: Number of points                             =    2094
 GePol: Average weight of points                     =       0.13
 GePol: Minimum weight of points                     =   0.10D-10
 GePol: Maximum weight of points                     =    0.20577
 GePol: Number of points with low weight             =     124
 GePol: Fraction of low-weight points (<1% of avg)   =       5.92%
 GePol: Cavity surface area                          =    269.241 Ang**2
 GePol: Cavity volume                                =    287.252 Ang**3
 Leave Link  301 at Fri Jan 23 15:19:46 2026, MaxMem=  2147483648 cpu:               0.6 elap:               0.0
 (Enter /data/home/wyx/g16/l302.exe)
 NPDir=0 NMtPBC=     1 NCelOv=     1 NCel=       1 NClECP=     1 NCelD=      1
         NCelK=      1 NCelE2=     1 NClLst=     1 CellRange=     0.0.
 One-electron integrals computed using PRISM.
 One-electron integral symmetry used in STVInt
 NBasis=   356 RedAO= T EigKep=  4.08D-05  NBF=   356
 NBsUse=   356 1.00D-06 EigRej= -1.00D+00 NBFU=   356
 Precomputing XC quadrature grid using
 IXCGrd= 4 IRadAn=           5 IRanWt=          -1 IRanGd=           0 AccXCQ= 0.00D+00.
 Generated NRdTot=       0 NPtTot=           0 NUsed=           0 NTot=          32
 NSgBfM=   366   366   366   366   366 MxSgAt=    29 MxSgA2=    29.
 Leave Link  302 at Fri Jan 23 15:19:47 2026, MaxMem=  2147483648 cpu:               3.1 elap:               0.2
 (Enter /data/home/wyx/g16/l303.exe)
 DipDrv:  MaxL=1.
 Leave Link  303 at Fri Jan 23 15:19:47 2026, MaxMem=  2147483648 cpu:               0.6 elap:               0.0
 (Enter /data/home/wyx/g16/l308.exe)
 Leave Link  308 at Fri Jan 23 15:19:47 2026, MaxMem=  2147483648 cpu:               0.7 elap:               0.1
 (Enter /data/home/wyx/g16/l401.exe)
 ExpMin= 9.52D-02 ExpMax= 2.70D+04 ExpMxC= 9.22D+02 IAcc=3 IRadAn=         5 AccDes= 0.00D+00
 Harris functional with IExCor=20419 and IRadAn=       5 diagonalized for initial guess.
 HarFok:  IExCor=20419 AccDes= 0.00D+00 IRadAn=         5 IDoV= 1 UseB2=F ITyADJ=14
 ICtDFT=  3500011 ScaDFX=  1.000000  1.000000  1.000000  1.000000
 FoFCou: FMM=F IPFlag=           0 FMFlag=      100000 FMFlg1=           0
         NFxFlg=           0 DoJE=T BraDBF=F KetDBF=T FulRan=T
         wScrn=  0.000000 ICntrl=       500 IOpCl=  0 I1Cent=   200000004 NGrid=           0
         NMat0=    1 NMatS0=      1 NMatT0=    0 NMatD0=    1 NMtDS0=    0 NMtDT0=    0
 Petite list used in FoFCou.
 Harris En= -608.710435580907    
 JPrj=0 DoOrth=F DoCkMO=F.
 Leave Link  401 at Fri Jan 23 15:19:48 2026, MaxMem=  2147483648 cpu:              11.8 elap:               0.8
 (Enter /data/home/wyx/g16/l502.exe)
 Integral symmetry usage will be decided dynamically.
 Closed shell SCF:
 Using DIIS extrapolation, IDIIS=  1040.
 NGot=  2147483648 LenX=  2147200095 LenY=  2147062754
 Requested convergence on RMS density matrix=1.00D-08 within 128 cycles.
 Requested convergence on MAX density matrix=1.00D-06.
 Requested convergence on             energy=1.00D-06.
 No special actions if energy rises.
 Fock matrices will be formed incrementally for  20 cycles.

 Cycle   1  Pass 1  IDiag  1:
 FoFJK:  IHMeth= 1 ICntrl=       0 DoSepK=T KAlg= 0 I1Cent=           0 FoldK=F
 IRaf=         1 NMat=       1 IRICut=       1 DoRegI=T DoRafI=F ISym2E= 0 IDoP0=0 IntGTp=1.
 FoFCou: FMM=F IPFlag=           0 FMFlag=      100000 FMFlg1=           0
         NFxFlg=           0 DoJE=T BraDBF=F KetDBF=F FulRan=T
         wScrn=  0.000000 ICntrl=       500 IOpCl=  0 I1Cent=           0 NGrid=           0
         NMat0=    1 NMatS0=      1 NMatT0=    0 NMatD0=    1 NMtDS0=    0 NMtDT0=    0
 Symmetry not used in FoFCou.
 Inv3:  Mode=1 IEnd=    13154508.
 Iteration    1 A*A^-1 deviation from unit magnitude is 3.66D-15 for   1812.
 Iteration    1 A*A^-1 deviation from orthogonality  is 1.65D-15 for   1384    886.
 Iteration    1 A^-1*A deviation from unit magnitude is 3.55D-15 for   1812.
 Iteration    1 A^-1*A deviation from orthogonality  is 1.62D-15 for   1392   1339.
 E= -633.117062999079    
 DIIS: error= 4.14D-02 at cycle   1 NSaved=   1.
 NSaved= 1 IEnMin= 1 EnMin= -633.117062999079     IErMin= 1 ErrMin= 4.14D-02
 ErrMax= 4.14D-02  0.00D+00 EMaxC= 1.00D-01 BMatC= 1.10D+00 BMatP= 1.10D+00
 IDIUse=3 WtCom= 5.86D-01 WtEn= 4.14D-01
 Coeff-Com:  0.100D+01
 Coeff-En:   0.100D+01
 Coeff:      0.100D+01
 Gap=     0.202 Goal=   None    Shift=    0.000
 GapD=    0.202 DampG=1.000 DampE=0.500 DampFc=0.5000 IDamp=-1.
 Damping current iteration by 5.00D-01
 RMSDP=3.97D-03 MaxDP=1.69D-01              OVMax= 1.66D-01

 Cycle   2  Pass 1  IDiag  1:
 RMSU=  1.76D-03    CP:  9.35D-01
 E= -633.214101342322     Delta-E=       -0.097038343243 Rises=F Damp=T
 DIIS: error= 2.00D-02 at cycle   2 NSaved=   2.
 NSaved= 2 IEnMin= 2 EnMin= -633.214101342322     IErMin= 2 ErrMin= 2.00D-02
 ErrMax= 2.00D-02  0.00D+00 EMaxC= 1.00D-01 BMatC= 2.24D-01 BMatP= 1.10D+00
 IDIUse=3 WtCom= 8.00D-01 WtEn= 2.00D-01
 Coeff-Com: -0.575D+00 0.158D+01
 Coeff-En:   0.000D+00 0.100D+01
 Coeff:     -0.461D+00 0.146D+01
 Gap=     0.226 Goal=   None    Shift=    0.000
 RMSDP=1.66D-03 MaxDP=6.16D-02 DE=-9.70D-02 OVMax= 1.56D-01

 Cycle   3  Pass 1  IDiag  1:
 RMSU=  1.53D-03    CP:  9.02D-01  1.26D+00
 E= -633.259662643958     Delta-E=       -0.045561301635 Rises=F Damp=F
 DIIS: error= 1.64D-02 at cycle   3 NSaved=   3.
 NSaved= 3 IEnMin= 3 EnMin= -633.259662643958     IErMin= 3 ErrMin= 1.64D-02
 ErrMax= 1.64D-02  0.00D+00 EMaxC= 1.00D-01 BMatC= 7.08D-02 BMatP= 2.24D-01
 IDIUse=3 WtCom= 8.36D-01 WtEn= 1.64D-01
 Coeff-Com: -0.364D+00 0.799D+00 0.564D+00
 Coeff-En:   0.000D+00 0.273D-01 0.973D+00
 Coeff:     -0.304D+00 0.673D+00 0.631D+00
 Gap=     0.220 Goal=   None    Shift=    0.000
 RMSDP=1.36D-03 MaxDP=6.72D-02 DE=-4.56D-02 OVMax= 9.18D-02

 Cycle   4  Pass 1  IDiag  1:
 RMSU=  5.33D-04    CP:  8.60D-01  1.73D+00  5.33D-01
 E= -633.313275618623     Delta-E=       -0.053612974665 Rises=F Damp=F
 DIIS: error= 5.66D-03 at cycle   4 NSaved=   4.
 NSaved= 4 IEnMin= 4 EnMin= -633.313275618623     IErMin= 4 ErrMin= 5.66D-03
 ErrMax= 5.66D-03  0.00D+00 EMaxC= 1.00D-01 BMatC= 9.25D-03 BMatP= 7.08D-02
 IDIUse=3 WtCom= 9.43D-01 WtEn= 5.66D-02
 Coeff-Com: -0.160D+00 0.347D+00 0.369D+00 0.444D+00
 Coeff-En:   0.000D+00 0.000D+00 0.674D-01 0.933D+00
 Coeff:     -0.151D+00 0.327D+00 0.352D+00 0.472D+00
 Gap=     0.218 Goal=   None    Shift=    0.000
 RMSDP=3.72D-04 MaxDP=2.25D-02 DE=-5.36D-02 OVMax= 2.29D-02

 Cycle   5  Pass 1  IDiag  1:
 RMSU=  1.05D-04    CP:  8.70D-01  1.66D+00  6.89D-01  6.49D-01
 E= -633.320771465800     Delta-E=       -0.007495847177 Rises=F Damp=F
 DIIS: error= 4.66D-04 at cycle   5 NSaved=   5.
 NSaved= 5 IEnMin= 5 EnMin= -633.320771465800     IErMin= 5 ErrMin= 4.66D-04
 ErrMax= 4.66D-04  0.00D+00 EMaxC= 1.00D-01 BMatC= 8.45D-05 BMatP= 9.25D-03
 IDIUse=3 WtCom= 9.95D-01 WtEn= 4.66D-03
 Coeff-Com: -0.180D-01 0.382D-01 0.560D-01 0.138D+00 0.786D+00
 Coeff-En:   0.000D+00 0.000D+00 0.000D+00 0.000D+00 0.100D+01
 Coeff:     -0.179D-01 0.381D-01 0.558D-01 0.137D+00 0.787D+00
 Gap=     0.218 Goal=   None    Shift=    0.000
 RMSDP=1.37D-04 MaxDP=9.21D-03 DE=-7.50D-03 OVMax= 2.06D-03

 Cycle   6  Pass 1  IDiag  1:
 RMSU=  5.24D-05    CP:  8.64D-01  1.69D+00  6.94D-01  7.85D-01  1.14D+00
 E= -633.320825294619     Delta-E=       -0.000053828819 Rises=F Damp=F
 DIIS: error= 4.19D-04 at cycle   6 NSaved=   6.
 NSaved= 6 IEnMin= 6 EnMin= -633.320825294619     IErMin= 6 ErrMin= 4.19D-04
 ErrMax= 4.19D-04  0.00D+00 EMaxC= 1.00D-01 BMatC= 2.88D-05 BMatP= 8.45D-05
 IDIUse=3 WtCom= 9.96D-01 WtEn= 4.19D-03
 Coeff-Com:  0.168D-01-0.368D-01-0.297D-01 0.229D-02 0.474D+00 0.573D+00
 Coeff-En:   0.000D+00 0.000D+00 0.000D+00 0.000D+00 0.103D+00 0.897D+00
 Coeff:      0.168D-01-0.366D-01-0.296D-01 0.228D-02 0.472D+00 0.575D+00
 Gap=     0.219 Goal=   None    Shift=    0.000
 RMSDP=2.60D-05 MaxDP=1.31D-03 DE=-5.38D-05 OVMax= 2.65D-03

 Cycle   7  Pass 1  IDiag  1:
 RMSU=  1.72D-05    CP:  8.64D-01  1.69D+00  6.96D-01  7.74D-01  1.21D+00
                    CP:  7.43D-01
 E= -633.320849719814     Delta-E=       -0.000024425195 Rises=F Damp=F
 DIIS: error= 4.90D-05 at cycle   7 NSaved=   7.
 NSaved= 7 IEnMin= 7 EnMin= -633.320849719814     IErMin= 7 ErrMin= 4.90D-05
 ErrMax= 4.90D-05  0.00D+00 EMaxC= 1.00D-01 BMatC= 1.00D-06 BMatP= 2.88D-05
 IDIUse=1 WtCom= 1.00D+00 WtEn= 0.00D+00
 Coeff-Com:  0.373D-02-0.806D-02-0.753D-02-0.953D-02 0.157D-01 0.155D+00
 Coeff-Com:  0.850D+00
 Coeff:      0.373D-02-0.806D-02-0.753D-02-0.953D-02 0.157D-01 0.155D+00
 Coeff:      0.850D+00
 Gap=     0.219 Goal=   None    Shift=    0.000
 RMSDP=1.77D-05 MaxDP=8.08D-04 DE=-2.44D-05 OVMax= 5.73D-04

 Cycle   8  Pass 1  IDiag  1:
 RMSU=  4.91D-06    CP:  8.64D-01  1.70D+00  6.98D-01  7.91D-01  1.27D+00
                    CP:  8.74D-01  1.03D+00
 E= -633.320851124743     Delta-E=       -0.000001404928 Rises=F Damp=F
 DIIS: error= 2.77D-05 at cycle   8 NSaved=   8.
 NSaved= 8 IEnMin= 8 EnMin= -633.320851124743     IErMin= 8 ErrMin= 2.77D-05
 ErrMax= 2.77D-05  0.00D+00 EMaxC= 1.00D-01 BMatC= 1.30D-07 BMatP= 1.00D-06
 IDIUse=1 WtCom= 1.00D+00 WtEn= 0.00D+00
 Coeff-Com: -0.496D-03 0.114D-02 0.431D-03-0.553D-02-0.633D-01-0.477D-02
 Coeff-Com:  0.305D+00 0.768D+00
 Coeff:     -0.496D-03 0.114D-02 0.431D-03-0.553D-02-0.633D-01-0.477D-02
 Coeff:      0.305D+00 0.768D+00
 Gap=     0.219 Goal=   None    Shift=    0.000
 RMSDP=4.82D-06 MaxDP=2.11D-04 DE=-1.40D-06 OVMax= 4.05D-04

 Cycle   9  Pass 1  IDiag  1:
 RMSU=  1.42D-06    CP:  8.63D-01  1.70D+00  6.98D-01  7.95D-01  1.28D+00
                    CP:  9.06D-01  1.12D+00  1.24D+00
 E= -633.320851343631     Delta-E=       -0.000000218888 Rises=F Damp=F
 DIIS: error= 5.26D-06 at cycle   9 NSaved=   9.
 NSaved= 9 IEnMin= 9 EnMin= -633.320851343631     IErMin= 9 ErrMin= 5.26D-06
 ErrMax= 5.26D-06  0.00D+00 EMaxC= 1.00D-01 BMatC= 1.93D-08 BMatP= 1.30D-07
 IDIUse=1 WtCom= 1.00D+00 WtEn= 0.00D+00
 Coeff-Com: -0.882D-03 0.192D-02 0.168D-02-0.189D-03-0.251D-01-0.202D-01
 Coeff-Com: -0.363D-01 0.275D+00 0.804D+00
 Coeff:     -0.882D-03 0.192D-02 0.168D-02-0.189D-03-0.251D-01-0.202D-01
 Coeff:     -0.363D-01 0.275D+00 0.804D+00
 Gap=     0.219 Goal=   None    Shift=    0.000
 RMSDP=2.29D-06 MaxDP=1.46D-04 DE=-2.19D-07 OVMax= 1.30D-04

 Cycle  10  Pass 1  IDiag  1:
 RMSU=  9.35D-07    CP:  8.63D-01  1.70D+00  6.98D-01  7.97D-01  1.29D+00
                    CP:  9.27D-01  1.16D+00  1.36D+00  1.04D+00
 E= -633.320851373609     Delta-E=       -0.000000029978 Rises=F Damp=F
 DIIS: error= 2.27D-06 at cycle  10 NSaved=  10.
 NSaved=10 IEnMin=10 EnMin= -633.320851373609     IErMin=10 ErrMin= 2.27D-06
 ErrMax= 2.27D-06  0.00D+00 EMaxC= 1.00D-01 BMatC= 1.65D-09 BMatP= 1.93D-08
 IDIUse=1 WtCom= 1.00D+00 WtEn= 0.00D+00
 Coeff-Com: -0.257D-03 0.556D-03 0.532D-03 0.255D-03-0.435D-02-0.533D-02
 Coeff-Com: -0.388D-01 0.394D-01 0.280D+00 0.728D+00
 Coeff:     -0.257D-03 0.556D-03 0.532D-03 0.255D-03-0.435D-02-0.533D-02
 Coeff:     -0.388D-01 0.394D-01 0.280D+00 0.728D+00
 Gap=     0.219 Goal=   None    Shift=    0.000
 RMSDP=4.87D-07 MaxDP=2.61D-05 DE=-3.00D-08 OVMax= 3.24D-05

 Cycle  11  Pass 1  IDiag  1:
 RMSU=  3.05D-07    CP:  8.63D-01  1.70D+00  6.98D-01  7.97D-01  1.29D+00
                    CP:  9.29D-01  1.16D+00  1.39D+00  1.17D+00  8.63D-01
 E= -633.320851375517     Delta-E=       -0.000000001908 Rises=F Damp=F
 DIIS: error= 1.36D-06 at cycle  11 NSaved=  11.
 NSaved=11 IEnMin=11 EnMin= -633.320851375517     IErMin=11 ErrMin= 1.36D-06
 ErrMax= 1.36D-06  0.00D+00 EMaxC= 1.00D-01 BMatC= 5.35D-10 BMatP= 1.65D-09
 IDIUse=1 WtCom= 1.00D+00 WtEn= 0.00D+00
 Coeff-Com:  0.182D-04-0.425D-04-0.690D-05 0.171D-03 0.223D-02 0.109D-02
 Coeff-Com: -0.160D-01-0.290D-01 0.127D-02 0.412D+00 0.628D+00
 Coeff:      0.182D-04-0.425D-04-0.690D-05 0.171D-03 0.223D-02 0.109D-02
 Coeff:     -0.160D-01-0.290D-01 0.127D-02 0.412D+00 0.628D+00
 Gap=     0.219 Goal=   None    Shift=    0.000
 RMSDP=2.03D-07 MaxDP=1.14D-05 DE=-1.91D-09 OVMax= 1.27D-05

 Cycle  12  Pass 1  IDiag  1:
 RMSU=  9.04D-08    CP:  8.63D-01  1.70D+00  6.98D-01  7.97D-01  1.29D+00
                    CP:  9.30D-01  1.16D+00  1.41D+00  1.17D+00  9.73D-01
                    CP:  8.03D-01
 E= -633.320851375998     Delta-E=       -0.000000000482 Rises=F Damp=F
 DIIS: error= 3.00D-07 at cycle  12 NSaved=  12.
 NSaved=12 IEnMin=12 EnMin= -633.320851375998     IErMin=12 ErrMin= 3.00D-07
 ErrMax= 3.00D-07  0.00D+00 EMaxC= 1.00D-01 BMatC= 3.92D-11 BMatP= 5.35D-10
 IDIUse=1 WtCom= 1.00D+00 WtEn= 0.00D+00
 Coeff-Com:  0.244D-04-0.543D-04-0.358D-04 0.613D-04 0.134D-02 0.912D-03
 Coeff-Com: -0.428D-02-0.155D-01-0.248D-01 0.127D+00 0.293D+00 0.623D+00
 Coeff:      0.244D-04-0.543D-04-0.358D-04 0.613D-04 0.134D-02 0.912D-03
 Coeff:     -0.428D-02-0.155D-01-0.248D-01 0.127D+00 0.293D+00 0.623D+00
 Gap=     0.219 Goal=   None    Shift=    0.000
 RMSDP=4.59D-08 MaxDP=2.06D-06 DE=-4.82D-10 OVMax= 2.30D-06

 Cycle  13  Pass 1  IDiag  1:
 RMSU=  2.44D-08    CP:  8.63D-01  1.70D+00  6.98D-01  7.97D-01  1.29D+00
                    CP:  9.30D-01  1.16D+00  1.41D+00  1.18D+00  9.79D-01
                    CP:  8.94D-01  9.55D-01
 E= -633.320851376032     Delta-E=       -0.000000000033 Rises=F Damp=F
 DIIS: error= 5.98D-08 at cycle  13 NSaved=  13.
 NSaved=13 IEnMin=13 EnMin= -633.320851376032     IErMin=13 ErrMin= 5.98D-08
 ErrMax= 5.98D-08  0.00D+00 EMaxC= 1.00D-01 BMatC= 2.60D-12 BMatP= 3.92D-11
 IDIUse=1 WtCom= 1.00D+00 WtEn= 0.00D+00
 Coeff-Com:  0.625D-05-0.135D-04-0.127D-04-0.792D-05 0.126D-03 0.147D-03
 Coeff-Com:  0.847D-03-0.480D-03-0.989D-02-0.207D-01 0.511D-02 0.193D+00
 Coeff-Com:  0.832D+00
 Coeff:      0.625D-05-0.135D-04-0.127D-04-0.792D-05 0.126D-03 0.147D-03
 Coeff:      0.847D-03-0.480D-03-0.989D-02-0.207D-01 0.511D-02 0.193D+00
 Coeff:      0.832D+00
 Gap=     0.219 Goal=   None    Shift=    0.000
 RMSDP=1.67D-08 MaxDP=6.64D-07 DE=-3.33D-11 OVMax= 1.07D-06

 Cycle  14  Pass 1  IDiag  1:
 RMSU=  9.79D-09    CP:  8.63D-01  1.70D+00  6.98D-01  7.97D-01  1.29D+00
                    CP:  9.30D-01  1.16D+00  1.41D+00  1.19D+00  9.82D-01
                    CP:  9.26D-01  1.04D+00  1.02D+00
 E= -633.320851376032     Delta-E=       -0.000000000001 Rises=F Damp=F
 DIIS: error= 3.38D-08 at cycle  14 NSaved=  14.
 NSaved=14 IEnMin=14 EnMin= -633.320851376032     IErMin=14 ErrMin= 3.38D-08
 ErrMax= 3.38D-08  0.00D+00 EMaxC= 1.00D-01 BMatC= 2.18D-13 BMatP= 2.60D-12
 IDIUse=1 WtCom= 1.00D+00 WtEn= 0.00D+00
 Coeff-Com:  0.685D-06-0.135D-05-0.200D-05-0.647D-05-0.356D-04 0.645D-05
 Coeff-Com:  0.511D-03 0.928D-03-0.153D-02-0.140D-01-0.134D-01 0.177D-01
 Coeff-Com:  0.247D+00 0.763D+00
 Coeff:      0.685D-06-0.135D-05-0.200D-05-0.647D-05-0.356D-04 0.645D-05
 Coeff:      0.511D-03 0.928D-03-0.153D-02-0.140D-01-0.134D-01 0.177D-01
 Coeff:      0.247D+00 0.763D+00
 Gap=     0.219 Goal=   None    Shift=    0.000
 RMSDP=5.38D-09 MaxDP=3.15D-07 DE=-5.68D-13 OVMax= 4.11D-07

 Error on total polarization charges =  0.01437
 SCF Done:  E(RCAM-B3LYP) =  -633.320851376     A.U. after   14 cycles
            NFock= 14  Conv=0.54D-08     -V/T= 2.0043
 KE= 6.306402736796D+02 PE=-3.274213733423D+03 EE= 1.111118176400D+03
 Leave Link  502 at Fri Jan 23 15:20:44 2026, MaxMem=  2147483648 cpu:             877.3 elap:              55.3
 (Enter /data/home/wyx/g16/l801.exe)
 DoSCS=F DFT=T ScalE2(SS,OS)=  1.000000  1.000000
 ExpMin= 9.52D-02 ExpMax= 2.70D+04 ExpMxC= 9.22D+02 IAcc=3 IRadAn=         5 AccDes= 0.00D+00
 HarFok:  IExCor=  205 AccDes= 0.00D+00 IRadAn=         5 IDoV=-2 UseB2=F ITyADJ=14
 ICtDFT= 12500011 ScaDFX=  1.000000  1.000000  1.000000  1.000000
 Largest valence mixing into a core orbital is  5.59D-05
 Largest core mixing into a valence orbital is  1.15D-05
 Range of M.O.s used for correlation:    15   356
 NBasis=   356 NAE=    52 NBE=    52 NFC=    14 NFV=     0
 NROrb=    342 NOA=    38 NOB=    38 NVA=   304 NVB=   304

 **** Warning!!: The largest alpha MO coefficient is  0.61270084D+02

 Leave Link  801 at Fri Jan 23 15:20:44 2026, MaxMem=  2147483648 cpu:               1.0 elap:               0.1
 (Enter /data/home/wyx/g16/l914.exe)
 RHF ground state
 Two-electron integrals replicated using symmetry.
 MDV=  2147483648 DFT=T DoStab=F Mixed=T DoRPA=T DoScal=F NonHer=T
 NEqPCM:  Using non-equilibrium solvation (IEInf=1, Eps=   7.4257, EpsInf=   1.9740)
 Inv3:  Mode=1 IEnd=    13154508.
 Iteration    1 A*A^-1 deviation from unit magnitude is 3.77D-15 for    474.
 Iteration    1 A*A^-1 deviation from orthogonality  is 1.78D-15 for   1900    281.
 Iteration    1 A^-1*A deviation from unit magnitude is 3.11D-15 for    474.
 Iteration    1 A^-1*A deviation from orthogonality  is 1.96D-15 for   1392   1339.
 Making orbital integer symmetry assigments:
 Orbital symmetries:
       Occupied  (A) (A) (A) (A) (A) (A) (A) (A) (A) (A) (A) (A)
                 (A) (A) (A) (A) (A) (A) (A) (A) (A) (A) (A) (A)
                 (A) (A) (A) (A) (A) (A) (A) (A) (A) (A) (A) (A)
                 (A) (A) (A) (A) (A) (A) (A) (A) (A) (A) (A) (A)
                 (A) (A) (A) (A)
       Virtual   (A) (A) (A) (A) (A) (A) (A) (A) (A) (A) (A) (A)
                 (A) (A) (A) (A) (A) (A) (A) (A) (A) (A) (A) (A)
                 (A) (A) (A) (A) (A) (A) (A) (A) (A) (A) (A) (A)
                 (A) (A) (A) (A) (A) (A) (A) (A) (A) (A) (A) (A)
                 (A) (A) (A) (A) (A) (A) (A) (A) (A) (A) (A) (A)
                 (A) (A) (A) (A) (A) (A) (A) (A) (A) (A) (A) (A)
                 (A) (A) (A) (A) (A) (A) (A) (A) (A) (A) (A) (A)
                 (A) (A) (A) (A) (A) (A) (A) (A) (A) (A) (A) (A)
                 (A) (A) (A) (A) (A) (A) (A) (A) (A) (A) (A) (A)
                 (A) (A) (A) (A) (A) (A) (A) (A) (A) (A) (A) (A)
                 (A) (A) (A) (A) (A) (A) (A) (A) (A) (A) (A) (A)
                 (A) (A) (A) (A) (A) (A) (A) (A) (A) (A) (A) (A)
                 (A) (A) (A) (A) (A) (A) (A) (A) (A) (A) (A) (A)
                 (A) (A) (A) (A) (A) (A) (A) (A) (A) (A) (A) (A)
                 (A) (A) (A) (A) (A) (A) (A) (A) (A) (A) (A) (A)
                 (A) (A) (A) (A) (A) (A) (A) (A) (A) (A) (A) (A)
                 (A) (A) (A) (A) (A) (A) (A) (A) (A) (A) (A) (A)
                 (A) (A) (A) (A) (A) (A) (A) (A) (A) (A) (A) (A)
                 (A) (A) (A) (A) (A) (A) (A) (A) (A) (A) (A) (A)
                 (A) (A) (A) (A) (A) (A) (A) (A) (A) (A) (A) (A)
                 (A) (A) (A) (A) (A) (A) (A) (A) (A) (A) (A) (A)
                 (A) (A) (A) (A) (A) (A) (A) (A) (A) (A) (A) (A)
                 (A) (A) (A) (A) (A) (A) (A) (A) (A) (A) (A) (A)
                 (A) (A) (A) (A) (A) (A) (A) (A) (A) (A) (A) (A)
                 (A) (A) (A) (A) (A) (A) (A) (A) (A) (A) (A) (A)
                 (A) (A) (A) (A)
    24 initial guesses have been made.
 Convergence on wavefunction:    0.001000000000000
 Davidson Disk Diagonalization:  ConvIn= 1.00D-03 SkipCon=T Conv= 1.00D-03.
 Max sub-space:  2000 roots to seek:    24 dimension of matrix:        23104
 Iteration     1 Dimension    24 NMult     0 NNew     24
 CISAX will form    24 AO SS matrices at one time.
 NMat=    24 NSing=    24 JSym2X= 0.
 FoFJK:  IHMeth= 1 ICntrl=       0 DoSepK=T KAlg= 0 I1Cent=           0 FoldK=F
 IRaf=         1 NMat=      48 IRICut=       1 DoRegI=T DoRafI=F ISym2E= 0 IDoP0=3 IntGTp=3.
 New state      2 was old state      3
 New state      3 was old state      4
 New state      4 was old state      2
 New state      5 was old state      6
 New state      6 was old state      5
 Excitation Energies [eV] at current iteration:
 Root      1 :     3.475012555094535
 Root      2 :     4.160317523457729
 Root      3 :     4.374618245007055
 Root      4 :     5.292705779906979
 Root      5 :     5.894276555948178
 Root      6 :     6.181382418052183
 Root      7 :     6.449650799334198
 Root      8 :     6.686363215016833
 Root      9 :     6.807352938425787
 Root     10 :     6.956889260540727
 Root     11 :     7.068190916170252
 Root     12 :     7.288659300100284
 Root     13 :     7.330451238827879
 Root     14 :     7.343435005283903
 Root     15 :     7.664949514510719
 Root     16 :     7.946001825904102
 Root     17 :     7.957922963599110
 Root     18 :     8.096344814192857
 Root     19 :     8.128237030318850
 Root     20 :     8.319247792302672
 Root     21 :     8.364030783351737
 Root     22 :     8.531983912350674
 Root     23 :     8.633465593977842
 Root     24 :     8.806684944318272
 Iteration     2 Dimension    36 NMult    24 NNew     12
 CISAX will form    12 AO SS matrices at one time.
 NMat=    12 NSing=    12 JSym2X= 0.
 Root      1 not converged, maximum delta is    0.039831042745370
 Root      2 not converged, maximum delta is    0.076050450635314
 Root      3 not converged, maximum delta is    0.089518117734719
 Root      4 not converged, maximum delta is    0.246994848414765
 New state      5 was old state      6
 Root      5 not converged, maximum delta is    0.240652241343611
 New state      6 was old state      5
 Root      6 not converged, maximum delta is    0.090972018026037
 Excitation Energies [eV] at current iteration:
 Root      1 :     3.023704851439050   Change is   -0.451307703655485
 Root      2 :     3.946026169812789   Change is   -0.214291353644940
 Root      3 :     4.116913920096280   Change is   -0.257704324910775
 Root      4 :     4.951442764347063   Change is   -0.341263015559916
 Root      5 :     5.396429616396961   Change is   -0.784952801655222
 Root      6 :     5.790355005780152   Change is   -0.103921550168025
 Iteration     3 Dimension    48 NMult    36 NNew     12
 CISAX will form    12 AO SS matrices at one time.
 NMat=    12 NSing=    12 JSym2X= 0.
 Root      1 not converged, maximum delta is    0.007458319853637
 Root      2 not converged, maximum delta is    0.016978233763138
 Root      3 not converged, maximum delta is    0.013543319219757
 Root      4 not converged, maximum delta is    0.020475015297043
 Root      5 not converged, maximum delta is    0.021665692343292
 Root      6 not converged, maximum delta is    0.006785070985925
 Excitation Energies [eV] at current iteration:
 Root      1 :     3.006730968016822   Change is   -0.016973883422228
 Root      2 :     3.933456564794648   Change is   -0.012569605018141
 Root      3 :     4.102881446049138   Change is   -0.014032474047142
 Root      4 :     4.931466942547548   Change is   -0.019975821799515
 Root      5 :     5.367090298464858   Change is   -0.029339317932102
 Root      6 :     5.786054556463742   Change is   -0.004300449316410
 Iteration     4 Dimension    60 NMult    48 NNew     12
 CISAX will form    12 AO SS matrices at one time.
 NMat=    12 NSing=    12 JSym2X= 0.
 Root      1 not converged, maximum delta is    0.002524107524548
 Root      2 not converged, maximum delta is    0.001861066466507
 Root      3 not converged, maximum delta is    0.002440590463398
 Root      4 not converged, maximum delta is    0.002867279272160
 Root      5 not converged, maximum delta is    0.003842884659167
 Root      6 not converged, maximum delta is    0.001961257639460
 Excitation Energies [eV] at current iteration:
 Root      1 :     3.005434291160109   Change is   -0.001296676856713
 Root      2 :     3.932877630318950   Change is   -0.000578934475697
 Root      3 :     4.101905166524697   Change is   -0.000976279524441
 Root      4 :     4.929575796615767   Change is   -0.001891145931781
 Root      5 :     5.363961996364051   Change is   -0.003128302100808
 Root      6 :     5.785795996861689   Change is   -0.000258559602052
 Iteration     5 Dimension    72 NMult    60 NNew     12
 CISAX will form    12 AO SS matrices at one time.
 NMat=    12 NSing=    12 JSym2X= 0.
 Root      1 has converged.
 Root      2 has converged.
 Root      3 has converged.
 Root      4 has converged.
 Root      5 not converged, maximum delta is    0.001071109365291
 Root      6 has converged.
 Excitation Energies [eV] at current iteration:
 Root      1 :     3.005371821852027   Change is   -0.000062469308082
 Root      2 :     3.932833094461221   Change is   -0.000044535857730
 Root      3 :     4.101860911711159   Change is   -0.000044254813537
 Root      4 :     4.929442518303280   Change is   -0.000133278312486
 Root      5 :     5.363728384777686   Change is   -0.000233611586364
 Root      6 :     5.785774376774567   Change is   -0.000021620087122
 Iteration     6 Dimension    74 NMult    72 NNew      2
 CISAX will form     2 AO SS matrices at one time.
 NMat=     2 NSing=     2 JSym2X= 0.
 Root      1 has converged.
 Root      2 has converged.
 Root      3 has converged.
 Root      4 has converged.
 Root      5 has converged.
 Root      6 has converged.
 Excitation Energies [eV] at current iteration:
 Root      1 :     3.005371776450288   Change is   -0.000000045401738
 Root      2 :     3.932833054957025   Change is   -0.000000039504196
 Root      3 :     4.101860848835329   Change is   -0.000000062875831
 Root      4 :     4.929439342281301   Change is   -0.000003176021979
 Root      5 :     5.363706893531808   Change is   -0.000021491245878
 Root      6 :     5.785774156949161   Change is   -0.000000219825406
 Convergence achieved on expansion vectors.
 ***********************************************************************
 Excited states from <AA,BB:AA,BB> singles matrix:
 ***********************************************************************
 
 1PDM for each excited state written to RWF  633
 Ground to excited state transition densities written to RWF  633
 Ground to excited state transition electric dipole moments (Au):
       state          X           Y           Z        Dip. S.      Osc.
         1         1.4815     -0.1397     -0.0410      2.2161      0.1632
         2        -0.0089     -0.0351      0.0346      0.0025      0.0002
         3        -0.0666      0.0794     -0.0229      0.0113      0.0011
         4         0.1543      1.2724     -0.0530      1.6456      0.1987
         5        -0.0804     -1.5543      0.0178      2.4227      0.3184
         6        -0.0146     -0.1980     -0.0565      0.0426      0.0060
 Ground to excited state transition velocity dipole moments (Au):
       state          X           Y           Z        Dip. S.      Osc.
         1        -0.1571      0.0114      0.0048      0.0248      0.1499
         2         0.0011      0.0054     -0.0018      0.0000      0.0002
         3         0.0093     -0.0098      0.0001      0.0002      0.0008
         4        -0.0328     -0.2182      0.0065      0.0487      0.1794
         5         0.0172      0.2990     -0.0042      0.0897      0.3034
         6         0.0044      0.0400      0.0319      0.0026      0.0083
 Ground to excited state transition magnetic dipole moments (Au):
       state          X           Y           Z
         1         0.0232     -0.0616      1.4819
         2         0.7792     -0.1146     -0.0956
         3         0.1881     -0.9624     -0.2188
         4        -0.0078      0.0367     -0.0062
         5         0.1132     -0.0981      0.2649
         6        -0.0282      0.0077     -0.0282
 Ground to excited state transition velocity quadrupole moments (Au):
       state          XX          YY          ZZ          XY          XZ          YZ
         1         0.1390     -0.0749     -0.0058      0.4602     -0.0303     -0.0172
         2         0.0237     -0.0083     -0.0094     -0.0116      0.0086      0.0706
         3        -0.0326      0.0063      0.0171     -0.0614      0.0585      0.0086
         4         1.1446     -0.2133     -0.0116     -0.0189     -0.0572      0.0227
         5        -0.6541      0.3099      0.0385      0.2029      0.0639      0.0028
         6         0.0657      0.1310     -0.1100     -0.0110     -0.0225     -0.0953
 <0|del|b> * <b|rxdel|0> + <0|del|b> * <b|delr+rdel|0>
 Rotatory Strengths (R) in cgs (10**-40 erg-esu-cm/Gauss)
       state          XX          YY          ZZ    R(velocity)    E-M Angle
         1        28.4487     12.5849    -23.6546      5.7930       89.33
         2        -1.1568      2.5849      0.4478      0.6253       85.21
         3        23.3255      4.2679     24.6268     17.4067       34.83
         4       -40.3308     -0.7896     10.6749    -10.1485      158.15
         5       -90.3712      3.1200    -14.9252    -34.0588      108.21
         6        -0.0783     -1.8200     -0.4941     -0.7975      110.17
 1/2[<0|r|b>*<b|rxdel|0> + (<0|rxdel|b>*<b|r|0>)*]
 Rotatory Strengths (R) in cgs (10**-40 erg-esu-cm/Gauss)
       state          XX          YY          ZZ     R(length)
         1       -24.2555     -6.0910     42.9459      4.1998
         2         4.8928     -2.8439      2.3379      1.4623
         3         8.8602     54.0310     -3.5405     19.7836
         4         0.8551    -33.0516     -0.2303    -10.8089
         5         6.4347   -107.7858     -3.3436    -34.8982
         6        -0.2917      1.0741     -1.1296     -0.1158
  1/2[<0|del|b>*<b|r|0> + (<0|r|b>*<b|del|0>)*] (Au)
       state          X           Y           Z        Dip. S.   Osc.(frdel)
         1        -0.2327     -0.0016     -0.0002      0.2345      0.1563
         2        -0.0000     -0.0002     -0.0001      0.0003      0.0002
         3        -0.0006     -0.0008     -0.0000      0.0014      0.0009
         4        -0.0051     -0.2777     -0.0003      0.2831      0.1887
         5        -0.0014     -0.4647     -0.0001      0.4661      0.3108
         6        -0.0001     -0.0079     -0.0018      0.0098      0.0065

 Excitation energies and oscillator strengths:
 
 Excited State   1:      Singlet-A      3.0054 eV  412.54 nm  f=0.1632  <S**2>=0.000
      52 -> 53         0.70188
 This state for optimization and/or second-order correction.
 Total Energy, E(TD-HF/TD-DFT) =  -633.210405995    
 Copying the excited state density for this state as the 1-particle RhoCI density.
 
 Excited State   2:      Singlet-A      3.9328 eV  315.25 nm  f=0.0002  <S**2>=0.000
      50 -> 54         0.16630
      51 -> 53         0.58803
      51 -> 54         0.31483
 
 Excited State   3:      Singlet-A      4.1019 eV  302.26 nm  f=0.0011  <S**2>=0.000
      49 -> 53         0.26664
      49 -> 54        -0.15189
      50 -> 53         0.53066
      50 -> 54        -0.24212
      50 -> 58         0.11103
      51 -> 54         0.19485
 
 Excited State   4:      Singlet-A      4.9294 eV  251.52 nm  f=0.1987  <S**2>=0.000
      52 -> 54         0.69936
 
 Excited State   5:      Singlet-A      5.3637 eV  231.15 nm  f=0.3184  <S**2>=0.000
      49 -> 53         0.61177
      50 -> 53        -0.30935
 
 Excited State   6:      Singlet-A      5.7858 eV  214.29 nm  f=0.0060  <S**2>=0.000
      52 -> 55         0.65318
      52 -> 56         0.15426
      52 -> 57         0.12535
 SavETr:  write IOETrn=   770 NScale= 10 NData=  16 NLR=1 NState=    6 LETran=     118.
 Leave Link  914 at Fri Jan 23 15:22:53 2026, MaxMem=  2147483648 cpu:            2054.8 elap:             129.1
 (Enter /data/home/wyx/g16/l601.exe)
 Copying SCF densities to generalized density rwf, IOpCl= 0 IROHF=0.

 **********************************************************************

            Population analysis using the SCF density.

 **********************************************************************

 Orbital symmetries:
       Occupied  (A) (A) (A) (A) (A) (A) (A) (A) (A) (A) (A) (A)
                 (A) (A) (A) (A) (A) (A) (A) (A) (A) (A) (A) (A)
                 (A) (A) (A) (A) (A) (A) (A) (A) (A) (A) (A) (A)
                 (A) (A) (A) (A) (A) (A) (A) (A) (A) (A) (A) (A)
                 (A) (A) (A) (A)
       Virtual   (A) (A) (A) (A) (A) (A) (A) (A) (A) (A) (A) (A)
                 (A) (A) (A) (A) (A) (A) (A) (A) (A) (A) (A) (A)
                 (A) (A) (A) (A) (A) (A) (A) (A) (A) (A) (A) (A)
                 (A) (A) (A) (A) (A) (A) (A) (A) (A) (A) (A) (A)
                 (A) (A) (A) (A) (A) (A) (A) (A) (A) (A) (A) (A)
                 (A) (A) (A) (A) (A) (A) (A) (A) (A) (A) (A) (A)
                 (A) (A) (A) (A) (A) (A) (A) (A) (A) (A) (A) (A)
                 (A) (A) (A) (A) (A) (A) (A) (A) (A) (A) (A) (A)
                 (A) (A) (A) (A) (A) (A) (A) (A) (A) (A) (A) (A)
                 (A) (A) (A) (A) (A) (A) (A) (A) (A) (A) (A) (A)
                 (A) (A) (A) (A) (A) (A) (A) (A) (A) (A) (A) (A)
                 (A) (A) (A) (A) (A) (A) (A) (A) (A) (A) (A) (A)
                 (A) (A) (A) (A) (A) (A) (A) (A) (A) (A) (A) (A)
                 (A) (A) (A) (A) (A) (A) (A) (A) (A) (A) (A) (A)
                 (A) (A) (A) (A) (A) (A) (A) (A) (A) (A) (A) (A)
                 (A) (A) (A) (A) (A) (A) (A) (A) (A) (A) (A) (A)
                 (A) (A) (A) (A) (A) (A) (A) (A) (A) (A) (A) (A)
                 (A) (A) (A) (A) (A) (A) (A) (A) (A) (A) (A) (A)
                 (A) (A) (A) (A) (A) (A) (A) (A) (A) (A) (A) (A)
                 (A) (A) (A) (A) (A) (A) (A) (A) (A) (A) (A) (A)
                 (A) (A) (A) (A) (A) (A) (A) (A) (A) (A) (A) (A)
                 (A) (A) (A) (A) (A) (A) (A) (A) (A) (A) (A) (A)
                 (A) (A) (A) (A) (A) (A) (A) (A) (A) (A) (A) (A)
                 (A) (A) (A) (A) (A) (A) (A) (A) (A) (A) (A) (A)
                 (A) (A) (A) (A) (A) (A) (A) (A) (A) (A) (A) (A)
                 (A) (A) (A) (A)
 The electronic state is 1-A.
 Alpha  occ. eigenvalues --  -19.17798 -19.16904 -14.44800 -10.33353 -10.32852
 Alpha  occ. eigenvalues --  -10.32777 -10.32221 -10.26248 -10.25410 -10.25086
 Alpha  occ. eigenvalues --  -10.24695 -10.24452 -10.24221 -10.23613  -1.11396
 Alpha  occ. eigenvalues --   -1.10826  -1.08488  -0.91455  -0.90528  -0.83960
 Alpha  occ. eigenvalues --   -0.82691  -0.81689  -0.78542  -0.73860  -0.72173
 Alpha  occ. eigenvalues --   -0.68706  -0.61588  -0.58315  -0.57035  -0.55169
 Alpha  occ. eigenvalues --   -0.54668  -0.54009  -0.52513  -0.51790  -0.50875
 Alpha  occ. eigenvalues --   -0.49719  -0.49514  -0.49282  -0.48696  -0.48032
 Alpha  occ. eigenvalues --   -0.47235  -0.45288  -0.45136  -0.43992  -0.43293
 Alpha  occ. eigenvalues --   -0.42140  -0.42138  -0.41508  -0.32607  -0.32161
 Alpha  occ. eigenvalues --   -0.31116  -0.25139
 Alpha virt. eigenvalues --   -0.03263   0.02551   0.06222   0.08015   0.08384
 Alpha virt. eigenvalues --    0.09739   0.10715   0.11532   0.12510   0.13392
 Alpha virt. eigenvalues --    0.13849   0.14821   0.15561   0.16361   0.16934
 Alpha virt. eigenvalues --    0.17462   0.17831   0.18055   0.18418   0.19226
 Alpha virt. eigenvalues --    0.19844   0.21985   0.22731   0.23465   0.23822
 Alpha virt. eigenvalues --    0.23986   0.24730   0.25628   0.26292   0.26682
 Alpha virt. eigenvalues --    0.27330   0.28021   0.28497   0.29439   0.30138
 Alpha virt. eigenvalues --    0.31618   0.31889   0.32320   0.33404   0.34231
 Alpha virt. eigenvalues --    0.34702   0.35810   0.36694   0.37723   0.38518
 Alpha virt. eigenvalues --    0.39664   0.40985   0.41357   0.41816   0.42465
 Alpha virt. eigenvalues --    0.43988   0.44805   0.45553   0.46204   0.46468
 Alpha virt. eigenvalues --    0.47288   0.47724   0.47889   0.48430   0.49166
 Alpha virt. eigenvalues --    0.49593   0.50564   0.51223   0.51392   0.51548
 Alpha virt. eigenvalues --    0.52595   0.52686   0.53284   0.53680   0.54200
 Alpha virt. eigenvalues --    0.54356   0.55300   0.55877   0.56674   0.58203
 Alpha virt. eigenvalues --    0.58427   0.59955   0.61033   0.61704   0.63054
 Alpha virt. eigenvalues --    0.64094   0.65087   0.66424   0.66847   0.67598
 Alpha virt. eigenvalues --    0.68705   0.69364   0.70737   0.71178   0.72080
 Alpha virt. eigenvalues --    0.73036   0.74617   0.75083   0.75990   0.77641
 Alpha virt. eigenvalues --    0.79058   0.80479   0.83292   0.86560   0.87460
 Alpha virt. eigenvalues --    0.91353   0.95566   1.02312   1.04219   1.22053
 Alpha virt. eigenvalues --    1.24377   1.27299   1.28383   1.29034   1.30375
 Alpha virt. eigenvalues --    1.31999   1.33067   1.34465   1.35047   1.36281
 Alpha virt. eigenvalues --    1.36699   1.37793   1.38429   1.38862   1.39616
 Alpha virt. eigenvalues --    1.39893   1.40228   1.40788   1.41314   1.42010
 Alpha virt. eigenvalues --    1.43321   1.43467   1.44221   1.45431   1.47301
 Alpha virt. eigenvalues --    1.48035   1.49450   1.49970   1.50276   1.50540
 Alpha virt. eigenvalues --    1.51344   1.52192   1.52857   1.55458   1.58577
 Alpha virt. eigenvalues --    1.59462   1.60145   1.60913   1.61609   1.62406
 Alpha virt. eigenvalues --    1.62633   1.63012   1.63602   1.64471   1.65768
 Alpha virt. eigenvalues --    1.66416   1.67008   1.67532   1.67947   1.68629
 Alpha virt. eigenvalues --    1.69057   1.69800   1.70143   1.71065   1.72456
 Alpha virt. eigenvalues --    1.74160   1.74757   1.75602   1.76561   1.78502
 Alpha virt. eigenvalues --    1.81419   1.82858   1.83859   1.85751   1.86529
 Alpha virt. eigenvalues --    1.86544   1.87966   1.88648   1.89023   1.90173
 Alpha virt. eigenvalues --    1.91272   1.94430   1.95049   1.99053   1.99715
 Alpha virt. eigenvalues --    2.01553   2.03869   2.05650   2.06810   2.09474
 Alpha virt. eigenvalues --    2.10241   2.11679   2.15714   2.17459   2.19650
 Alpha virt. eigenvalues --    2.20375   2.21215   2.22103   2.22955   2.26393
 Alpha virt. eigenvalues --    2.27050   2.27456   2.29263   2.31214   2.32303
 Alpha virt. eigenvalues --    2.33706   2.34358   2.36874   2.37877   2.39201
 Alpha virt. eigenvalues --    2.39395   2.40266   2.41408   2.42775   2.45053
 Alpha virt. eigenvalues --    2.45775   2.47783   2.49008   2.49690   2.51265
 Alpha virt. eigenvalues --    2.52447   2.54166   2.54600   2.56396   2.57441
 Alpha virt. eigenvalues --    2.58708   2.60877   2.61871   2.62465   2.63366
 Alpha virt. eigenvalues --    2.64707   2.65551   2.66548   2.67419   2.68392
 Alpha virt. eigenvalues --    2.71669   2.71984   2.73847   2.74771   2.75257
 Alpha virt. eigenvalues --    2.76605   2.76918   2.77430   2.78238   2.78890
 Alpha virt. eigenvalues --    2.80698   2.81760   2.83124   2.83871   2.85028
 Alpha virt. eigenvalues --    2.85476   2.86418   2.88848   2.89101   2.92036
 Alpha virt. eigenvalues --    2.97387   2.98766   3.00938   3.06877   3.10734
 Alpha virt. eigenvalues --    3.12274   3.14297   3.17962   3.19140   3.21445
 Alpha virt. eigenvalues --    3.22231   3.23515   3.25148   3.25844   3.26605
 Alpha virt. eigenvalues --    3.28840   3.30250   3.32438   3.34598   3.36578
 Alpha virt. eigenvalues --    3.38156   3.38770   3.39399   3.39630   3.41689
 Alpha virt. eigenvalues --    3.42061   3.44003   3.44942   3.47699   3.48434
 Alpha virt. eigenvalues --    3.49670   3.50155   3.55866   3.58421   3.59997
 Alpha virt. eigenvalues --    3.61254   3.91055   4.00751   4.33252   4.36274
 Alpha virt. eigenvalues --   21.67866  21.80801  22.08046  22.10338  22.11619
 Alpha virt. eigenvalues --   22.14816  22.15129  22.18020  22.19241  22.25025
 Alpha virt. eigenvalues --   22.27513  31.91434  43.64017  43.66844
          Condensed to atoms (all electrons):
               1          2          3          4          5          6
     1  O    7.930282   0.000000  -0.000177   0.000019   0.019564   0.008982
     2  O    0.000000   7.979770   0.000391   0.000015  -0.193917   0.001360
     3  N   -0.000177   0.000391   6.366885   0.369119  -0.121060   0.328700
     4  H    0.000019   0.000015   0.369119   0.412691   0.016186  -0.045904
     5  C    0.019564  -0.193917  -0.121060   0.016186   7.175987  -0.080932
     6  C    0.008982   0.001360   0.328700  -0.045904  -0.080932   5.563405
     7  C   -0.000078  -0.049213   0.393696  -0.036827   0.471443  -0.129773
     8  C   -0.000734   0.701494   0.004198  -0.000877  -0.353181   0.033964
     9  C   -0.002542   0.027033   0.014502   0.000136  -0.723856  -0.042205
    10  H    0.008581   0.000006  -0.001212   0.000023  -0.113824   0.028840
    11  H    0.007974   0.000120   0.003491   0.000038  -0.064143  -0.019542
    12  C   -0.231550  -0.003210  -0.088175   0.014426   0.194212  -0.069201
    13  C    0.714765  -0.000015   0.001665   0.000567   0.084381   0.120434
    14  C   -0.000008  -0.005509  -0.032813  -0.010472  -0.086992   0.010742
    15  H   -0.000000   0.004157   0.004563   0.002254   0.021819   0.006385
    16  H    0.000000   0.002233  -0.000400   0.000799  -0.005762  -0.001290
    17  H   -0.000000   0.003425  -0.002034   0.000913  -0.009393  -0.001300
    18  C    0.000285  -0.100172  -0.000490   0.000021  -0.250889  -0.000014
    19  H   -0.000000   0.007450   0.000006  -0.000001   0.023994   0.000016
    20  H    0.000169   0.004265   0.000111   0.000001   0.045598  -0.001251
    21  H   -0.000006   0.000722   0.000012  -0.000001   0.002178   0.000192
    22  C   -0.105692   0.000000  -0.000219   0.000119   0.003972  -0.024645
    23  H    0.001397   0.000000   0.000021  -0.000011  -0.000018   0.008508
    24  H    0.005077  -0.000000   0.000189  -0.000056  -0.000739  -0.025412
    25  H    0.006570   0.000000   0.000021  -0.000003  -0.000137  -0.000805
    26  C    0.000764   0.000010  -0.025632  -0.006599   0.000613   0.195359
    27  H   -0.000053  -0.000000  -0.002426   0.000499   0.000370  -0.032483
    28  H   -0.000227  -0.000000   0.001049   0.000723   0.000071  -0.048141
    29  H    0.000022   0.000000   0.001976   0.002088  -0.000326  -0.048796
               7          8          9         10         11         12
     1  O   -0.000078  -0.000734  -0.002542   0.008581   0.007974  -0.231550
     2  O   -0.049213   0.701494   0.027033   0.000006   0.000120  -0.003210
     3  N    0.393696   0.004198   0.014502  -0.001212   0.003491  -0.088175
     4  H   -0.036827  -0.000877   0.000136   0.000023   0.000038   0.014426
     5  C    0.471443  -0.353181  -0.723856  -0.113824  -0.064143   0.194212
     6  C   -0.129773   0.033964  -0.042205   0.028840  -0.019542  -0.069201
     7  C    5.415390  -0.239772  -0.223547   0.015610  -0.006356   0.028429
     8  C   -0.239772   5.417845   0.214733  -0.009652  -0.000907  -0.053139
     9  C   -0.223547   0.214733   6.432691   0.534642   0.427064  -0.143219
    10  H    0.015610  -0.009652   0.534642   0.537417  -0.050469  -0.109184
    11  H   -0.006356  -0.000907   0.427064  -0.050469   0.581288  -0.014446
    12  C    0.028429  -0.053139  -0.143219  -0.109184  -0.014446   7.378374
    13  C    0.019857  -0.009639  -0.235639  -0.000841  -0.008045  -0.502097
    14  C    0.291983  -0.031214   0.005138   0.000444  -0.000770   0.000293
    15  H   -0.086408   0.005383   0.000840  -0.000004   0.000042  -0.001656
    16  H   -0.023692  -0.006701  -0.000337  -0.000054   0.000174   0.000210
    17  H   -0.019030  -0.001623   0.000951   0.000061  -0.000060   0.000305
    18  C   -0.001707   0.326747   0.000099   0.007280  -0.013949  -0.000560
    19  H    0.000226  -0.053058  -0.002210   0.000586   0.000126  -0.000153
    20  H    0.004126  -0.072284  -0.008070  -0.007598   0.003093   0.007238
    21  H   -0.000395  -0.024237  -0.009586  -0.000537   0.000710  -0.002470
    22  C    0.000147  -0.000066   0.010259  -0.001341   0.003438  -0.249937
    23  H   -0.000008   0.000002  -0.002159  -0.000131   0.000179  -0.011232
    24  H   -0.000021   0.000009   0.002670   0.000102  -0.000228   0.065820
    25  H    0.000011   0.000002   0.000225  -0.000026  -0.000104   0.019433
    26  C    0.002630   0.000837   0.021719   0.000167  -0.000723  -0.085757
    27  H   -0.000819  -0.000014  -0.000484   0.000039  -0.000008  -0.017558
    28  H   -0.000750   0.000001  -0.000066   0.000013  -0.000102  -0.007531
    29  H    0.003049  -0.000003  -0.000516  -0.000015   0.000085   0.023153
              13         14         15         16         17         18
     1  O    0.714765  -0.000008  -0.000000   0.000000  -0.000000   0.000285
     2  O   -0.000015  -0.005509   0.004157   0.002233   0.003425  -0.100172
     3  N    0.001665  -0.032813   0.004563  -0.000400  -0.002034  -0.000490
     4  H    0.000567  -0.010472   0.002254   0.000799   0.000913   0.000021
     5  C    0.084381  -0.086992   0.021819  -0.005762  -0.009393  -0.250889
     6  C    0.120434   0.010742   0.006385  -0.001290  -0.001300  -0.000014
     7  C    0.019857   0.291983  -0.086408  -0.023692  -0.019030  -0.001707
     8  C   -0.009639  -0.031214   0.005383  -0.006701  -0.001623   0.326747
     9  C   -0.235639   0.005138   0.000840  -0.000337   0.000951   0.000099
    10  H   -0.000841   0.000444  -0.000004  -0.000054   0.000061   0.007280
    11  H   -0.008045  -0.000770   0.000042   0.000174  -0.000060  -0.013949
    12  C   -0.502097   0.000293  -0.001656   0.000210   0.000305  -0.000560
    13  C    5.582478   0.000129  -0.000042  -0.000005  -0.000007   0.001421
    14  C    0.000129   5.026431   0.390530   0.415037   0.407964   0.001064
    15  H   -0.000042   0.390530   0.581449  -0.027490  -0.025832   0.000229
    16  H   -0.000005   0.415037  -0.027490   0.508323  -0.025766  -0.000173
    17  H   -0.000007   0.407964  -0.025832  -0.025766   0.504864   0.000107
    18  C    0.001421   0.001064   0.000229  -0.000173   0.000107   5.309285
    19  H   -0.000012   0.000032  -0.000004   0.000038  -0.000036   0.396764
    20  H    0.000929   0.000097  -0.000015  -0.000029  -0.000001   0.379719
    21  H   -0.000154  -0.000199  -0.000005   0.000011  -0.000008   0.400522
    22  C    0.276991  -0.000009   0.000002  -0.000000   0.000000   0.000034
    23  H   -0.021614  -0.000001   0.000000  -0.000000   0.000000  -0.000002
    24  H   -0.100074   0.000003   0.000000  -0.000000   0.000000   0.000001
    25  H   -0.034216   0.000000   0.000000   0.000000  -0.000000  -0.000001
    26  C   -0.053751   0.000537   0.000289   0.000013  -0.000073   0.000007
    27  H    0.006738  -0.000097  -0.000005   0.000004  -0.000005  -0.000000
    28  H   -0.002059   0.000051  -0.000008  -0.000002   0.000001   0.000000
    29  H   -0.001361  -0.000125   0.000098  -0.000002  -0.000000  -0.000000
              19         20         21         22         23         24
     1  O   -0.000000   0.000169  -0.000006  -0.105692   0.001397   0.005077
     2  O    0.007450   0.004265   0.000722   0.000000   0.000000  -0.000000
     3  N    0.000006   0.000111   0.000012  -0.000219   0.000021   0.000189
     4  H   -0.000001   0.000001  -0.000001   0.000119  -0.000011  -0.000056
     5  C    0.023994   0.045598   0.002178   0.003972  -0.000018  -0.000739
     6  C    0.000016  -0.001251   0.000192  -0.024645   0.008508  -0.025412
     7  C    0.000226   0.004126  -0.000395   0.000147  -0.000008  -0.000021
     8  C   -0.053058  -0.072284  -0.024237  -0.000066   0.000002   0.000009
     9  C   -0.002210  -0.008070  -0.009586   0.010259  -0.002159   0.002670
    10  H    0.000586  -0.007598  -0.000537  -0.001341  -0.000131   0.000102
    11  H    0.000126   0.003093   0.000710   0.003438   0.000179  -0.000228
    12  C   -0.000153   0.007238  -0.002470  -0.249937  -0.011232   0.065820
    13  C   -0.000012   0.000929  -0.000154   0.276991  -0.021614  -0.100074
    14  C    0.000032   0.000097  -0.000199  -0.000009  -0.000001   0.000003
    15  H   -0.000004  -0.000015  -0.000005   0.000002   0.000000   0.000000
    16  H    0.000038  -0.000029   0.000011  -0.000000  -0.000000  -0.000000
    17  H   -0.000036  -0.000001  -0.000008   0.000000   0.000000   0.000000
    18  C    0.396764   0.379719   0.400522   0.000034  -0.000002   0.000001
    19  H    0.508337  -0.025102  -0.010011  -0.000000   0.000000   0.000000
    20  H   -0.025102   0.540573  -0.023280   0.000034  -0.000000  -0.000001
    21  H   -0.010011  -0.023280   0.491938  -0.000012   0.000000   0.000000
    22  C   -0.000000   0.000034  -0.000012   5.432488   0.400058   0.396401
    23  H    0.000000  -0.000000   0.000000   0.400058   0.495571  -0.027930
    24  H    0.000000  -0.000001   0.000000   0.396401  -0.027930   0.549438
    25  H   -0.000000  -0.000000   0.000000   0.381979  -0.007980  -0.022429
    26  C    0.000000  -0.000017   0.000003  -0.033259  -0.010188   0.016455
    27  H    0.000000   0.000000  -0.000000  -0.010749   0.000866  -0.001844
    28  H   -0.000000  -0.000000   0.000000   0.003956   0.000133  -0.007172
    29  H    0.000000   0.000000  -0.000000   0.002089   0.000166   0.000590
              25         26         27         28         29
     1  O    0.006570   0.000764  -0.000053  -0.000227   0.000022
     2  O    0.000000   0.000010  -0.000000  -0.000000   0.000000
     3  N    0.000021  -0.025632  -0.002426   0.001049   0.001976
     4  H   -0.000003  -0.006599   0.000499   0.000723   0.002088
     5  C   -0.000137   0.000613   0.000370   0.000071  -0.000326
     6  C   -0.000805   0.195359  -0.032483  -0.048141  -0.048796
     7  C    0.000011   0.002630  -0.000819  -0.000750   0.003049
     8  C    0.000002   0.000837  -0.000014   0.000001  -0.000003
     9  C    0.000225   0.021719  -0.000484  -0.000066  -0.000516
    10  H   -0.000026   0.000167   0.000039   0.000013  -0.000015
    11  H   -0.000104  -0.000723  -0.000008  -0.000102   0.000085
    12  C    0.019433  -0.085757  -0.017558  -0.007531   0.023153
    13  C   -0.034216  -0.053751   0.006738  -0.002059  -0.001361
    14  C    0.000000   0.000537  -0.000097   0.000051  -0.000125
    15  H    0.000000   0.000289  -0.000005  -0.000008   0.000098
    16  H    0.000000   0.000013   0.000004  -0.000002  -0.000002
    17  H   -0.000000  -0.000073  -0.000005   0.000001  -0.000000
    18  C   -0.000001   0.000007  -0.000000   0.000000  -0.000000
    19  H   -0.000000   0.000000   0.000000  -0.000000   0.000000
    20  H   -0.000000  -0.000017   0.000000  -0.000000   0.000000
    21  H    0.000000   0.000003  -0.000000   0.000000  -0.000000
    22  C    0.381979  -0.033259  -0.010749   0.003956   0.002089
    23  H   -0.007980  -0.010188   0.000866   0.000133   0.000166
    24  H   -0.022429   0.016455  -0.001844  -0.007172   0.000590
    25  H    0.493194   0.001936   0.000124   0.000563  -0.000035
    26  C    0.001936   5.234734   0.426329   0.432451   0.387378
    27  H    0.000124   0.426329   0.481090  -0.027927  -0.016930
    28  H    0.000563   0.432451  -0.027927   0.504645  -0.024683
    29  H   -0.000035   0.387378  -0.016930  -0.024683   0.518545
 Mulliken charges:
               1
     1  O   -0.363385
     2  O   -0.380414
     3  N   -0.215957
     4  H    0.280114
     5  C   -0.055221
     6  C    0.264806
     7  C    0.171799
     8  C    0.151888
     9  C   -0.298268
    10  H    0.161074
    11  H    0.152030
    12  C   -0.140817
    13  C    0.159217
    14  C   -0.382267
    15  H    0.123429
    16  H    0.164863
    17  H    0.166577
    18  C   -0.455628
    19  H    0.153013
    20  H    0.151694
    21  H    0.174612
    22  C   -0.486038
    23  H    0.174373
    24  H    0.149151
    25  H    0.161677
    26  C   -0.506230
    27  H    0.195345
    28  H    0.175009
    29  H    0.153553
 Sum of Mulliken charges =  -0.00000
 Mulliken charges with hydrogens summed into heavy atoms:
               1
     1  O   -0.363385
     2  O   -0.380414
     3  N    0.064157
     5  C   -0.055221
     6  C    0.264806
     7  C    0.171799
     8  C    0.151888
     9  C    0.014836
    12  C   -0.140817
    13  C    0.159217
    14  C    0.072603
    18  C    0.023691
    22  C   -0.000837
    26  C    0.017677
 Electronic spatial extent (au):  <R**2>=           3206.0868
 Charge=             -0.0000 electrons
 Dipole moment (field-independent basis, Debye):
    X=              4.0489    Y=              7.5697    Z=              0.1843  Tot=              8.5864
 Quadrupole moment (field-independent basis, Debye-Ang):
   XX=            -98.2789   YY=            -78.1563   ZZ=            -84.9170
   XY=             12.2110   XZ=              3.8898   YZ=             -2.3075
 Traceless Quadrupole moment (field-independent basis, Debye-Ang):
   XX=            -11.1615   YY=              8.9611   ZZ=              2.2004
   XY=             12.2110   XZ=              3.8898   YZ=             -2.3075
 Octapole moment (field-independent basis, Debye-Ang**2):
  XXX=            111.0648  YYY=             64.5793  ZZZ=              1.1888  XYY=            -34.6376
  XXY=             32.1807  XXZ=             -4.3285  XZZ=              0.4301  YZZ=             -1.2398
  YYZ=              4.7719  XYZ=             -5.1976
 Hexadecapole moment (field-independent basis, Debye-Ang**3):
 XXXX=          -3069.0410 YYYY=          -1295.0379 ZZZZ=           -142.1488 XXXY=             31.4938
 XXXZ=             41.9739 YYYX=             87.3528 YYYZ=            -19.4632 ZZZX=             -3.7465
 ZZZY=              1.9871 XXYY=           -691.2454 XXZZ=           -479.2854 YYZZ=           -245.3961
 XXYZ=            -10.4350 YYXZ=              9.8745 ZZXY=              0.0165
 N-N= 8.991344319673D+02 E-N=-3.274213731360D+03  KE= 6.306402736796D+02
 Leave Link  601 at Fri Jan 23 15:23:00 2026, MaxMem=  2147483648 cpu:               0.7 elap:               0.1
 (Enter /data/home/wyx/g16/l9999.exe)
 Electronic transition elements 
                 1             2             3             4             5 
      1  -0.633210D+03 -0.633176D+03 -0.633170D+03 -0.633140D+03 -0.633124D+03
      2   0.143812D+01 -0.482166D-03 -0.862419D-01 -0.273598D+00  0.440694D+00
      3   0.366028D+00 -0.357922D-01  0.522228D-01  0.124983D+01 -0.149076D+01
      4   0.117940D+00  0.349905D-01 -0.331062D-01 -0.930934D-01  0.782970D-01
      5  -0.151388D+00 -0.600981D-03  0.119661D-01  0.412422D-01 -0.830078D-01
      6  -0.420322D-01  0.543121D-02 -0.606458D-02 -0.216526D+00  0.287330D+00
      7  -0.119416D-01 -0.191039D-02  0.147811D-02  0.127860D-01 -0.156494D-01
      8  -0.123482D+00  0.778347D+00  0.521314D+00 -0.188877D-01  0.109015D+00
      9  -0.396559D-01  0.153282D+00 -0.844743D+00  0.319175D-01 -0.524177D-01
     10   0.147771D+01 -0.976826D-02 -0.155450D+00 -0.854451D-02  0.279242D+00
     11  -0.168645D+00  0.304795D-01 -0.896858D-03  0.100478D+01 -0.678184D+00
     12   0.240277D+00 -0.109933D-01 -0.365741D-01 -0.718727D-01  0.329810D+00
     13  -0.132439D-01 -0.133927D-01  0.283215D-01 -0.132532D-01  0.426328D-01
     14   0.424299D+00 -0.672198D-02 -0.622787D-01  0.411857D+00 -0.149179D+00
     15  -0.441206D-01 -0.110587D-01  0.506233D-01  0.498944D-01 -0.203355D-01
     16   0.194118D-01  0.690618D-01  0.213426D-01  0.489385D-01  0.536817D-02
                 6 
      1  -0.633108D+03
      2   0.585975D-01
      3  -0.191766D+00
      4  -0.489291D-01
      5  -0.127524D-01
      6   0.393428D-01
      7   0.303944D-01
      8  -0.257999D-01
      9  -0.245473D-02
     10  -0.313133D-01
     11   0.752188D-01
     12   0.115239D+00
     13  -0.103793D+00
     14  -0.178955D-01
     15   0.317079D-01
     16  -0.101547D+00
 1\1\GINC-CN012\SP\RCAM-B3LYP TD-FC\TZVP\C11H15N1O2\WYX\23-Jan-2026\0\\
 #p CAM-B3LYP TZVP em=gd3bj td(nstates=6,root=1) scrf=(Solvent=TetraHyd
 roFuran)\\Title Card Required\\0,1\O,0,2.839691,-1.573384,0.037849\O,0
 ,-3.429203,-1.648793,-0.14129\N,0,-0.664952,1.517747,-0.185688\H,0,-0.
 976814,2.478348,-0.235218\C,0,-1.248428,-0.762655,-0.201081\C,0,0.6789
 95,1.334892,-0.023667\C,0,-1.63861,0.578642,-0.238255\C,0,-2.21189,-1.
 846455,-0.182765\C,0,0.194308,-1.082668,-0.190208\H,0,0.406434,-1.8883
 97,0.521548\H,0,0.474092,-1.562221,-1.146582\C,0,1.147434,0.025849,0.0
 41424\C,0,2.517919,-0.401916,0.269951\C,0,-3.027428,1.105125,-0.349093
 \H,0,-3.024235,2.189528,-0.454009\H,0,-3.543492,0.675929,-1.203654\H,0
 ,-3.619066,0.845626,0.525216\C,0,-1.708565,-3.268057,-0.185138\H,0,-2.
 516063,-3.926818,-0.488508\H,0,-0.858139,-3.42479,-0.842902\H,0,-1.398
 197,-3.560573,0.818638\C,0,3.566365,0.527674,0.831886\H,0,4.0722,1.066
 98,0.028207\H,0,3.163894,1.257182,1.529871\H,0,4.31009,-0.083283,1.339
 01\C,0,1.469592,2.600083,0.025453\H,0,1.716045,2.895922,1.046065\H,0,2
 .400273,2.510419,-0.526187\H,0,0.90775,3.420064,-0.420871\\Version=ES6
 4L-G16RevA.03\State=1-A\HF=-633.3208514\RMSD=5.379e-09\PG=C01 [X(C11H1
 5N1O2)]\\@


 ALL OUR THINKING ABOUT NATURE MUST NECESSARILY MOVE IN CIRCLES OR SPIRALS;
 FOR WE CAN ONLY UNDERSTAND NATURE IF WE THINK ABOUT HER, AND WE CAN ONLY
 THINK BECAUSE OUR BRAIN IS BUILT IN ACCORDANCE WITH NATURE'S LAWS.

                                             -- TIMOTHY FERRIS, "GALAXIES"
 Job cpu time:       0 days  0 hours 49 minutes 12.4 seconds.
 Elapsed time:       0 days  0 hours  3 minutes  5.9 seconds.
 File lengths (MBytes):  RWF=    828 Int=      0 D2E=      0 Chk=     34 Scr=      1
 Normal termination of Gaussian 16 at Fri Jan 23 15:23:02 2026.
