 Entering Gaussian System, Link 0=g16
 Input=DDL-S1-intmode.gjf
 Output=DDL-S1-intmode.log
 Initial command:
 /data/home/wyx/g16/l1.exe "/scr/tmp/wyx/15845/Gau-213375.inp" -scrdir="/scr/tmp/wyx/15845/"
 Entering Link 1 = /data/home/wyx/g16/l1.exe PID=    213376.
  
 Copyright (c) 1988,1990,1992,1993,1995,1998,2003,2009,2016,
            Gaussian, Inc.  All Rights Reserved.
  
 This is part of the Gaussian(R) 16 program.  It is based on
 the Gaussian(R) 09 system (copyright 2009, Gaussian, Inc.),
 the Gaussian(R) 03 system (copyright 2003, Gaussian, Inc.),
 the Gaussian(R) 98 system (copyright 1998, Gaussian, Inc.),
 the Gaussian(R) 94 system (copyright 1995, Gaussian, Inc.),
 the Gaussian 92(TM) system (copyright 1992, Gaussian, Inc.),
 the Gaussian 90(TM) system (copyright 1990, Gaussian, Inc.),
 the Gaussian 88(TM) system (copyright 1988, Gaussian, Inc.),
 the Gaussian 86(TM) system (copyright 1986, Carnegie Mellon
 University), and the Gaussian 82(TM) system (copyright 1983,
 Carnegie Mellon University). Gaussian is a federally registered
 trademark of Gaussian, Inc.
  
 This software contains proprietary and confidential information,
 including trade secrets, belonging to Gaussian, Inc.
  
 This software is provided under written license and may be
 used, copied, transmitted, or stored only in accord with that
 written license.
  
 The following legend is applicable only to US Government
 contracts under FAR:
  
                    RESTRICTED RIGHTS LEGEND
  
 Use, reproduction and disclosure by the US Government is
 subject to restrictions as set forth in subparagraphs (a)
 and (c) of the Commercial Computer Software - Restricted
 Rights clause in FAR 52.227-19.
  
 Gaussian, Inc.
 340 Quinnipiac St., Bldg. 40, Wallingford CT 06492
  
  
 ---------------------------------------------------------------
 Warning -- This program may not be used in any manner that
 competes with the business of Gaussian, Inc. or will provide
 assistance to any competitor of Gaussian, Inc.  The licensee
 of this program is prohibited from giving any competitor of
 Gaussian, Inc. access to this program.  By using this program,
 the user acknowledges that Gaussian, Inc. is engaged in the
 business of creating and licensing software in the field of
 computational chemistry and represents and warrants to the
 licensee that it is not a competitor of Gaussian, Inc. and that
 it will not use this program in any manner prohibited above.
 ---------------------------------------------------------------
  

 Cite this work as:
 Gaussian 16, Revision A.03,
 M. J. Frisch, G. W. Trucks, H. B. Schlegel, G. E. Scuseria, 
 M. A. Robb, J. R. Cheeseman, G. Scalmani, V. Barone, 
 G. A. Petersson, H. Nakatsuji, X. Li, M. Caricato, A. V. Marenich, 
 J. Bloino, B. G. Janesko, R. Gomperts, B. Mennucci, H. P. Hratchian, 
 J. V. Ortiz, A. F. Izmaylov, J. L. Sonnenberg, D. Williams-Young, 
 F. Ding, F. Lipparini, F. Egidi, J. Goings, B. Peng, A. Petrone, 
 T. Henderson, D. Ranasinghe, V. G. Zakrzewski, J. Gao, N. Rega, 
 G. Zheng, W. Liang, M. Hada, M. Ehara, K. Toyota, R. Fukuda, 
 J. Hasegawa, M. Ishida, T. Nakajima, Y. Honda, O. Kitao, H. Nakai, 
 T. Vreven, K. Throssell, J. A. Montgomery, Jr., J. E. Peralta, 
 F. Ogliaro, M. J. Bearpark, J. J. Heyd, E. N. Brothers, K. N. Kudin, 
 V. N. Staroverov, T. A. Keith, R. Kobayashi, J. Normand, 
 K. Raghavachari, A. P. Rendell, J. C. Burant, S. S. Iyengar, 
 J. Tomasi, M. Cossi, J. M. Millam, M. Klene, C. Adamo, R. Cammi, 
 J. W. Ochterski, R. L. Martin, K. Morokuma, O. Farkas, 
 J. B. Foresman, and D. J. Fox, Gaussian, Inc., Wallingford CT, 2016.
 
 ******************************************
 Gaussian 16:  ES64L-G16RevA.03 25-Dec-2016
                12-Jun-2026 
 ******************************************
 %nprocshared=32
 Will use up to   32 processors via shared memory.
 %mem=16GB
 %oldchk=DDL-S1-opt-freq.chk
 %chk=DDL-S1-intmode.chk
 Copying data from "DDL-S1-opt-freq.chk" to current chk file "DDL-S1-intmode.chk"
 IOpt=  2 FromEx=T IUOpen= 4 IOptOp= 5 NList=   0 IFRang= 0 IUIn= 4 IUOut= 2.
 ----------------------------------------------------------------------
 #p CAM-B3LYP/TZVP em=gd3bj opt freq=intmodes IOp(7/75=-1) td=(root=1,n
 states=1) SCRF=Solvent=TetraHydroFuran Geom=Check Guess=Read
 ----------------------------------------------------------------------
 1/18=20,19=15,26=3,29=2,38=1/1,3;
 2/9=110,12=2,40=1/2;
 3/5=19,7=101,11=9,14=-4,25=1,30=1,70=2201,71=1,72=20,74=-40,116=-2,124=41/1,2,3,8;
 4/5=1/1;
 5/5=2,38=6,53=20/2;
 8/6=1,10=1,107=1,108=1/1;
 9/8=1,15=2,41=1,42=1,70=2/14;
 10/5=4,28=1/2;
 6/7=2,8=2,9=2,10=2/1;
 7/12=6,13=5,14=1,75=-1/1,2,3,16;
 1/18=20,19=15,26=3/3(2);
 2/9=110/2;
 99//99;
 2/9=110/2;
 3/5=19,7=101,11=9,14=-2,25=1,30=1,70=2205,71=1,72=20,74=-40,124=41/1,2,3,8;
 4/5=5,16=3,69=1/1;
 5/5=2,38=5,53=20/2;
 8/6=1,10=1,107=1,108=1/1;
 9/8=1,15=2,41=1,42=1,49=4,70=2/14;
 10/5=4,28=1/2;
 7/12=6,13=5,14=1,75=-1/1,2,3,16;
 1/18=20,19=15,26=3/3(-8);
 2/9=110/2;
 6/7=2,8=2,9=2,10=2/1;
 99//99;
 Leave Link    1 at Fri Jun 12 19:57:40 2026, MaxMem=  2147483648 cpu:               2.9 elap:               0.3
 (Enter /data/home/wyx/g16/l101.exe)
 -------------------
 Title Card Required
 -------------------
 Structure from the checkpoint file:  "DDL-S1-intmode.chk"
 Charge =  0 Multiplicity = 1
 Redundant internal coordinates found in file.  (old form).
 O,0,1.3945220005,9.8211866469,0.3945305353
 O,0,-4.8762889793,9.7402731996,0.1870816674
 N,0,-2.119093892,12.9160131106,0.2510925989
 H,0,-2.4316304625,13.8776595666,0.2028378196
 C,0,-2.6969141816,10.6323332674,0.1926468445
 C,0,-0.7728057445,12.7417115393,0.3864908624
 C,0,-3.0923761221,11.9845013972,0.1641778763
 C,0,-3.6542766842,9.5449293575,0.1822849717
 C,0,-1.2583982383,10.3215110855,0.2415180553
 H,0,-1.0564395505,9.5275944052,0.9726277758
 H,0,-0.9623615762,9.8094358106,-0.6959598527
 C,0,-0.2994973216,11.4231421917,0.4441503941
 C,0,1.0730758362,10.9925573426,0.6423449869
 C,0,-4.4829110014,12.5062596591,0.0242602602
 H,0,-4.47598769,13.5956118672,-0.0332442812
 H,0,-4.961492716,12.1128292531,-0.8712659815
 H,0,-5.1063355443,12.2047306163,0.8641589114
 C,0,-3.1463452612,8.1202064333,0.2047959073
 H,0,-3.9394077773,7.471059059,-0.1588442099
 H,0,-2.2524203394,7.9653081326,-0.3963472504
 H,0,-2.9103362683,7.8240474218,1.2303683466
 C,0,2.1297812824,11.9200948896,1.1934823237
 H,0,2.6331670771,12.4549388249,0.385004468
 H,0,1.7360388295,12.6535136314,1.892425968
 H,0,2.8746018547,11.3078198525,1.6977974643
 C,0,0.025601032,14.0039920756,0.4113642378
 H,0,0.3229548738,14.2927380054,1.4218681424
 H,0,0.9302988668,13.9110325722,-0.1851100019
 H,0,-0.5538933323,14.8288032352,-0.0045388403
 Recover connectivity data from disk.
 ITRead=  0  0  0  0  0  0  0  0  0  0  0  0  0  0  0  0  0  0  0  0
 ITRead=  0  0  0  0  0  0  0  0  0
 MicOpt= -1 -1 -1 -1 -1 -1 -1 -1 -1 -1 -1 -1 -1 -1 -1 -1 -1 -1 -1 -1
 MicOpt= -1 -1 -1 -1 -1 -1 -1 -1 -1
 NAtoms=     29 NQM=       29 NQMF=       0 NMMI=      0 NMMIF=      0
                NMic=       0 NMicF=      0.
                    Isotopes and Nuclear Properties:
 (Nuclear quadrupole moments (NQMom) in fm**2, nuclear magnetic moments (NMagM)
  in nuclear magnetons)

  Atom         1           2           3           4           5           6           7           8           9          10
 IAtWgt=          16          16          14           1          12          12          12          12          12           1
 AtmWgt=  15.9949146  15.9949146  14.0030740   1.0078250  12.0000000  12.0000000  12.0000000  12.0000000  12.0000000   1.0078250
 NucSpn=           0           0           2           1           0           0           0           0           0           1
 AtZEff=   5.6000000   5.6000000   4.5500000   1.0000000   3.6000000   3.6000000   3.6000000   3.6000000   3.6000000   1.0000000
 NQMom=    0.0000000   0.0000000   2.0440000   0.0000000   0.0000000   0.0000000   0.0000000   0.0000000   0.0000000   0.0000000
 NMagM=    0.0000000   0.0000000   0.4037610   2.7928460   0.0000000   0.0000000   0.0000000   0.0000000   0.0000000   2.7928460
 AtZNuc=   8.0000000   8.0000000   7.0000000   1.0000000   6.0000000   6.0000000   6.0000000   6.0000000   6.0000000   1.0000000

  Atom        11          12          13          14          15          16          17          18          19          20
 IAtWgt=           1          12          12          12           1           1           1          12           1           1
 AtmWgt=   1.0078250  12.0000000  12.0000000  12.0000000   1.0078250   1.0078250   1.0078250  12.0000000   1.0078250   1.0078250
 NucSpn=           1           0           0           0           1           1           1           0           1           1
 AtZEff=   1.0000000   3.6000000   3.6000000   3.6000000   1.0000000   1.0000000   1.0000000   3.6000000   1.0000000   1.0000000
 NQMom=    0.0000000   0.0000000   0.0000000   0.0000000   0.0000000   0.0000000   0.0000000   0.0000000   0.0000000   0.0000000
 NMagM=    2.7928460   0.0000000   0.0000000   0.0000000   2.7928460   2.7928460   2.7928460   0.0000000   2.7928460   2.7928460
 AtZNuc=   1.0000000   6.0000000   6.0000000   6.0000000   1.0000000   1.0000000   1.0000000   6.0000000   1.0000000   1.0000000

  Atom        21          22          23          24          25          26          27          28          29
 IAtWgt=           1          12           1           1           1          12           1           1           1
 AtmWgt=   1.0078250  12.0000000   1.0078250   1.0078250   1.0078250  12.0000000   1.0078250   1.0078250   1.0078250
 NucSpn=           1           0           1           1           1           0           1           1           1
 AtZEff=   1.0000000   3.6000000   1.0000000   1.0000000   1.0000000   3.6000000   1.0000000   1.0000000   1.0000000
 NQMom=    0.0000000   0.0000000   0.0000000   0.0000000   0.0000000   0.0000000   0.0000000   0.0000000   0.0000000
 NMagM=    2.7928460   0.0000000   2.7928460   2.7928460   2.7928460   0.0000000   2.7928460   2.7928460   2.7928460
 AtZNuc=   1.0000000   6.0000000   1.0000000   1.0000000   1.0000000   6.0000000   1.0000000   1.0000000   1.0000000
 Leave Link  101 at Fri Jun 12 19:57:48 2026, MaxMem=  2147483648 cpu:              10.7 elap:               0.4
 (Enter /data/home/wyx/g16/l103.exe)

 GradGradGradGradGradGradGradGradGradGradGradGradGradGradGradGradGradGrad
 Berny optimization.
 Initialization pass.
                           ----------------------------
                           !    Initial Parameters    !
                           ! (Angstroms and Degrees)  !
 --------------------------                            --------------------------
 ! Name  Definition              Value          Derivative Info.                !
 --------------------------------------------------------------------------------
 ! R1    R(1,13)                 1.2397         estimate D2E/DX2                !
 ! R2    R(2,8)                  1.2375         estimate D2E/DX2                !
 ! R3    R(3,4)                  1.0123         estimate D2E/DX2                !
 ! R4    R(3,6)                  1.3643         estimate D2E/DX2                !
 ! R5    R(3,7)                  1.35           estimate D2E/DX2                !
 ! R6    R(5,7)                  1.4091         estimate D2E/DX2                !
 ! R7    R(5,8)                  1.4488         estimate D2E/DX2                !
 ! R8    R(5,9)                  1.4725         estimate D2E/DX2                !
 ! R9    R(6,12)                 1.4021         estimate D2E/DX2                !
 ! R10   R(6,26)                 1.4938         estimate D2E/DX2                !
 ! R11   R(7,14)                 1.4918         estimate D2E/DX2                !
 ! R12   R(8,18)                 1.5127         estimate D2E/DX2                !
 ! R13   R(9,10)                 1.098          estimate D2E/DX2                !
 ! R14   R(9,11)                 1.1085         estimate D2E/DX2                !
 ! R15   R(9,12)                 1.4745         estimate D2E/DX2                !
 ! R16   R(12,13)                1.4521         estimate D2E/DX2                !
 ! R17   R(13,22)                1.5102         estimate D2E/DX2                !
 ! R18   R(14,15)                1.0909         estimate D2E/DX2                !
 ! R19   R(14,16)                1.0889         estimate D2E/DX2                !
 ! R20   R(14,17)                1.0886         estimate D2E/DX2                !
 ! R21   R(18,19)                1.0875         estimate D2E/DX2                !
 ! R22   R(18,20)                1.0883         estimate D2E/DX2                !
 ! R23   R(18,21)                1.0933         estimate D2E/DX2                !
 ! R24   R(22,23)                1.0923         estimate D2E/DX2                !
 ! R25   R(22,24)                1.0869         estimate D2E/DX2                !
 ! R26   R(22,25)                1.0881         estimate D2E/DX2                !
 ! R27   R(26,27)                1.0922         estimate D2E/DX2                !
 ! R28   R(26,28)                1.0876         estimate D2E/DX2                !
 ! R29   R(26,29)                1.0905         estimate D2E/DX2                !
 ! A1    A(4,3,6)              115.5163         estimate D2E/DX2                !
 ! A2    A(4,3,7)              115.456          estimate D2E/DX2                !
 ! A3    A(6,3,7)              129.0263         estimate D2E/DX2                !
 ! A4    A(7,5,8)              122.3185         estimate D2E/DX2                !
 ! A5    A(7,5,9)              118.5151         estimate D2E/DX2                !
 ! A6    A(8,5,9)              119.1656         estimate D2E/DX2                !
 ! A7    A(3,6,12)             117.216          estimate D2E/DX2                !
 ! A8    A(3,6,26)             114.9061         estimate D2E/DX2                !
 ! A9    A(12,6,26)            127.8466         estimate D2E/DX2                !
 ! A10   A(3,7,5)              117.2897         estimate D2E/DX2                !
 ! A11   A(3,7,14)             115.8948         estimate D2E/DX2                !
 ! A12   A(5,7,14)             126.8071         estimate D2E/DX2                !
 ! A13   A(2,8,5)              122.2758         estimate D2E/DX2                !
 ! A14   A(2,8,18)             118.6964         estimate D2E/DX2                !
 ! A15   A(5,8,18)             119.0059         estimate D2E/DX2                !
 ! A16   A(5,9,10)             110.7571         estimate D2E/DX2                !
 ! A17   A(5,9,11)             109.2895         estimate D2E/DX2                !
 ! A18   A(5,9,12)             118.8267         estimate D2E/DX2                !
 ! A19   A(10,9,11)            100.3691         estimate D2E/DX2                !
 ! A20   A(10,9,12)            109.2136         estimate D2E/DX2                !
 ! A21   A(11,9,12)            106.7196         estimate D2E/DX2                !
 ! A22   A(6,12,9)             118.5171         estimate D2E/DX2                !
 ! A23   A(6,12,13)            127.1236         estimate D2E/DX2                !
 ! A24   A(9,12,13)            114.3254         estimate D2E/DX2                !
 ! A25   A(1,13,12)            119.8669         estimate D2E/DX2                !
 ! A26   A(1,13,22)            118.1546         estimate D2E/DX2                !
 ! A27   A(12,13,22)           121.943          estimate D2E/DX2                !
 ! A28   A(7,14,15)            110.3828         estimate D2E/DX2                !
 ! A29   A(7,14,16)            111.1268         estimate D2E/DX2                !
 ! A30   A(7,14,17)            111.3819         estimate D2E/DX2                !
 ! A31   A(15,14,16)           108.6765         estimate D2E/DX2                !
 ! A32   A(15,14,17)           108.7178         estimate D2E/DX2                !
 ! A33   A(16,14,17)           106.4238         estimate D2E/DX2                !
 ! A34   A(8,18,19)            108.2017         estimate D2E/DX2                !
 ! A35   A(8,18,20)            113.6795         estimate D2E/DX2                !
 ! A36   A(8,18,21)            109.9733         estimate D2E/DX2                !
 ! A37   A(19,18,20)           109.229          estimate D2E/DX2                !
 ! A38   A(19,18,21)           108.0241         estimate D2E/DX2                !
 ! A39   A(20,18,21)           107.5949         estimate D2E/DX2                !
 ! A40   A(13,22,23)           110.676          estimate D2E/DX2                !
 ! A41   A(13,22,24)           113.3048         estimate D2E/DX2                !
 ! A42   A(13,22,25)           107.6082         estimate D2E/DX2                !
 ! A43   A(23,22,24)           108.21           estimate D2E/DX2                !
 ! A44   A(23,22,25)           107.6452         estimate D2E/DX2                !
 ! A45   A(24,22,25)           109.2451         estimate D2E/DX2                !
 ! A46   A(6,26,27)            112.6012         estimate D2E/DX2                !
 ! A47   A(6,26,28)            111.2991         estimate D2E/DX2                !
 ! A48   A(6,26,29)            110.4123         estimate D2E/DX2                !
 ! A49   A(27,26,28)           107.6699         estimate D2E/DX2                !
 ! A50   A(27,26,29)           107.3126         estimate D2E/DX2                !
 ! A51   A(28,26,29)           107.3091         estimate D2E/DX2                !
 ! D1    D(4,3,6,12)          -179.4101         estimate D2E/DX2                !
 ! D2    D(4,3,6,26)            -1.2829         estimate D2E/DX2                !
 ! D3    D(7,3,6,12)             0.1364         estimate D2E/DX2                !
 ! D4    D(7,3,6,26)           178.2636         estimate D2E/DX2                !
 ! D5    D(4,3,7,5)            178.4176         estimate D2E/DX2                !
 ! D6    D(4,3,7,14)            -0.6009         estimate D2E/DX2                !
 ! D7    D(6,3,7,5)             -1.1291         estimate D2E/DX2                !
 ! D8    D(6,3,7,14)           179.8524         estimate D2E/DX2                !
 ! D9    D(8,5,7,3)            176.4632         estimate D2E/DX2                !
 ! D10   D(8,5,7,14)            -4.6395         estimate D2E/DX2                !
 ! D11   D(9,5,7,3)             -3.2187         estimate D2E/DX2                !
 ! D12   D(9,5,7,14)           175.6786         estimate D2E/DX2                !
 ! D13   D(7,5,8,2)             -2.1508         estimate D2E/DX2                !
 ! D14   D(7,5,8,18)           179.5729         estimate D2E/DX2                !
 ! D15   D(9,5,8,2)            177.5291         estimate D2E/DX2                !
 ! D16   D(9,5,8,18)            -0.7472         estimate D2E/DX2                !
 ! D17   D(7,5,9,10)           135.8671         estimate D2E/DX2                !
 ! D18   D(7,5,9,11)          -114.4643         estimate D2E/DX2                !
 ! D19   D(7,5,9,12)             8.2555         estimate D2E/DX2                !
 ! D20   D(8,5,9,10)           -43.8251         estimate D2E/DX2                !
 ! D21   D(8,5,9,11)            65.8436         estimate D2E/DX2                !
 ! D22   D(8,5,9,12)          -171.4366         estimate D2E/DX2                !
 ! D23   D(3,6,12,9)             5.1113         estimate D2E/DX2                !
 ! D24   D(3,6,12,13)         -177.1364         estimate D2E/DX2                !
 ! D25   D(26,6,12,9)         -172.7375         estimate D2E/DX2                !
 ! D26   D(26,6,12,13)           5.0148         estimate D2E/DX2                !
 ! D27   D(3,6,26,27)          101.355          estimate D2E/DX2                !
 ! D28   D(3,6,26,28)         -137.6354         estimate D2E/DX2                !
 ! D29   D(3,6,26,29)          -18.5692         estimate D2E/DX2                !
 ! D30   D(12,6,26,27)         -80.7542         estimate D2E/DX2                !
 ! D31   D(12,6,26,28)          40.2554         estimate D2E/DX2                !
 ! D32   D(12,6,26,29)         159.3216         estimate D2E/DX2                !
 ! D33   D(3,7,14,15)            2.7292         estimate D2E/DX2                !
 ! D34   D(3,7,14,16)          123.3798         estimate D2E/DX2                !
 ! D35   D(3,7,14,17)         -118.143          estimate D2E/DX2                !
 ! D36   D(5,7,14,15)         -176.1815         estimate D2E/DX2                !
 ! D37   D(5,7,14,16)          -55.5308         estimate D2E/DX2                !
 ! D38   D(5,7,14,17)           62.9464         estimate D2E/DX2                !
 ! D39   D(2,8,18,19)           21.6324         estimate D2E/DX2                !
 ! D40   D(2,8,18,20)          143.1503         estimate D2E/DX2                !
 ! D41   D(2,8,18,21)          -96.1469         estimate D2E/DX2                !
 ! D42   D(5,8,18,19)         -160.0291         estimate D2E/DX2                !
 ! D43   D(5,8,18,20)          -38.5111         estimate D2E/DX2                !
 ! D44   D(5,8,18,21)           82.1917         estimate D2E/DX2                !
 ! D45   D(5,9,12,6)            -9.2283         estimate D2E/DX2                !
 ! D46   D(5,9,12,13)          172.7384         estimate D2E/DX2                !
 ! D47   D(10,9,12,6)         -137.5591         estimate D2E/DX2                !
 ! D48   D(10,9,12,13)          44.4076         estimate D2E/DX2                !
 ! D49   D(11,9,12,6)          114.7606         estimate D2E/DX2                !
 ! D50   D(11,9,12,13)         -63.2727         estimate D2E/DX2                !
 ! D51   D(6,12,13,1)         -164.8253         estimate D2E/DX2                !
 ! D52   D(6,12,13,22)          17.3852         estimate D2E/DX2                !
 ! D53   D(9,12,13,1)           13.0073         estimate D2E/DX2                !
 ! D54   D(9,12,13,22)        -164.7822         estimate D2E/DX2                !
 ! D55   D(1,13,22,23)          91.9875         estimate D2E/DX2                !
 ! D56   D(1,13,22,24)        -146.2599         estimate D2E/DX2                !
 ! D57   D(1,13,22,25)         -25.3796         estimate D2E/DX2                !
 ! D58   D(12,13,22,23)        -90.1866         estimate D2E/DX2                !
 ! D59   D(12,13,22,24)         31.566          estimate D2E/DX2                !
 ! D60   D(12,13,22,25)        152.4463         estimate D2E/DX2                !
 --------------------------------------------------------------------------------
 Trust Radius=3.00D-01 FncErr=1.00D-07 GrdErr=1.00D-06 EigMax=2.50D+02 EigMin=1.00D-04
 Number of steps in this run=    150 maximum allowed number of steps=    174.
 GradGradGradGradGradGradGradGradGradGradGradGradGradGradGradGradGradGrad

 Leave Link  103 at Fri Jun 12 19:57:51 2026, MaxMem=  2147483648 cpu:               1.4 elap:               0.1
 (Enter /data/home/wyx/g16/l202.exe)
                          Input orientation:                          
 ---------------------------------------------------------------------
 Center     Atomic      Atomic             Coordinates (Angstroms)
 Number     Number       Type             X           Y           Z
 ---------------------------------------------------------------------
      1          8           0        1.394522    9.821187    0.394531
      2          8           0       -4.876289    9.740273    0.187082
      3          7           0       -2.119094   12.916013    0.251093
      4          1           0       -2.431630   13.877660    0.202838
      5          6           0       -2.696914   10.632333    0.192647
      6          6           0       -0.772806   12.741712    0.386491
      7          6           0       -3.092376   11.984501    0.164178
      8          6           0       -3.654277    9.544929    0.182285
      9          6           0       -1.258398   10.321511    0.241518
     10          1           0       -1.056440    9.527594    0.972628
     11          1           0       -0.962362    9.809436   -0.695960
     12          6           0       -0.299497   11.423142    0.444150
     13          6           0        1.073076   10.992557    0.642345
     14          6           0       -4.482911   12.506260    0.024260
     15          1           0       -4.475988   13.595612   -0.033244
     16          1           0       -4.961493   12.112829   -0.871266
     17          1           0       -5.106336   12.204731    0.864159
     18          6           0       -3.146345    8.120206    0.204796
     19          1           0       -3.939408    7.471059   -0.158844
     20          1           0       -2.252420    7.965308   -0.396347
     21          1           0       -2.910336    7.824047    1.230368
     22          6           0        2.129781   11.920095    1.193482
     23          1           0        2.633167   12.454939    0.385004
     24          1           0        1.736039   12.653514    1.892426
     25          1           0        2.874602   11.307820    1.697797
     26          6           0        0.025601   14.003992    0.411364
     27          1           0        0.322955   14.292738    1.421868
     28          1           0        0.930299   13.911033   -0.185110
     29          1           0       -0.553893   14.828803   -0.004539
 ---------------------------------------------------------------------
                    Distance matrix (angstroms):
                    1          2          3          4          5
     1  O    0.000000
     2  O    6.274763   0.000000
     3  N    4.684445   4.206132   0.000000
     4  H    5.579531   4.805681   1.012310   0.000000
     5  C    4.175951   2.354884   2.356371   3.256167   0.000000
     6  C    3.636872   5.087924   1.364260   2.018863   2.861686
     7  C    4.986507   2.866955   1.350017   2.005524   1.409099
     8  C    5.060804   1.237536   3.704825   4.501981   1.448826
     9  C    2.704020   3.664687   2.733556   3.744885   1.472524
    10  H    2.535272   3.905581   3.623704   4.626748   2.126023
    11  H    2.596961   4.012901   3.447573   4.417809   2.115527
    12  C    2.332043   4.883150   2.361539   3.260196   2.536975
    13  C    1.239697   6.096755   3.747360   4.560696   3.813766
    14  C    6.472321   2.798560   2.409768   2.473940   2.594174
    15  H    6.992293   3.882322   2.469342   2.077181   3.463690
    16  H    6.874066   2.599304   3.159751   3.266271   2.907249
    17  H    6.939955   2.566107   3.131355   3.223365   2.954433
    18  C    4.852711   2.370155   4.904809   5.801645   2.552042
    19  H    5.854924   2.479263   5.755790   6.591566   3.414819
    20  H    4.167729   3.221114   4.994641   5.945338   2.767221
    21  H    4.818609   2.936893   5.245299   6.158831   3.001480
    22  C    2.363122   7.406044   4.464627   5.061612   5.094800
    23  H    2.910495   7.987522   4.776453   5.263981   5.636369
    24  H    3.222173   7.424153   4.198206   4.660763   5.159989
    25  H    2.469660   8.050824   5.442080   6.082358   5.810641
    26  C    4.401146   6.500625   2.410208   2.469297   4.339125
    27  H    4.711523   7.020098   3.038040   3.040734   4.901954
    28  H    4.156721   7.158926   3.237149   3.384403   4.904003
    29  H    5.388117   6.679293   2.484747   2.115083   4.716119
                    6          7          8          9         10
     6  C    0.000000
     7  C    2.450142   0.000000
     8  C    4.308595   2.503512   0.000000
     9  C    2.472688   2.476892   2.519290   0.000000
    10  H    3.279414   3.291659   2.715456   1.098004   0.000000
    11  H    3.131433   3.163496   2.843885   1.108478   1.694836
    12  C    1.402131   2.862461   3.853674   1.474497   2.108400
    13  C    2.555833   4.308548   4.965395   2.459011   2.605770
    14  C    3.735175   1.491776   3.079137   3.901001   4.638163
    15  H    3.823464   2.132846   4.138803   4.598708   5.408683
    16  H    4.418432   2.140609   3.068044   4.261457   5.033172
    17  H    4.392721   2.143480   3.106118   4.329067   4.855974
    18  C    5.198559   3.864885   1.512725   2.900247   2.634011
    19  H    6.172887   4.603582   2.120992   3.933596   3.717670
    20  H    5.061237   4.144108   2.189799   2.635649   2.396915
    21  H    5.428129   4.298753   2.147874   3.153419   2.530896
    22  C    3.122707   5.323020   6.333976   3.865419   3.990594
    23  H    3.418025   5.749080   6.931176   4.440313   4.746351
    24  H    2.927443   5.171848   6.453168   4.138887   4.291309
    25  H    4.132693   6.197960   6.930427   4.491686   4.375861
    26  C    1.493795   3.723067   5.785950   3.903610   4.639393
    27  H    2.162956   4.309783   6.316377   4.434473   4.981078
    28  H    2.143503   4.473862   6.341622   4.225763   4.949951
    29  H    2.134661   3.816073   6.129160   4.568649   5.413892
                   11         12         13         14         15
    11  H    0.000000
    12  C    2.084056   0.000000
    13  C    2.708107   1.452116   0.000000
    14  C    4.492866   4.341705   5.791573   0.000000
    15  H    5.207676   4.731871   6.166394   1.090891   0.000000
    16  H    4.618377   4.892871   6.321554   1.088942   1.771056
    17  H    5.034275   4.888045   6.301086   1.088581   1.771220
    18  C    2.904245   4.367061   5.123023   4.588732   5.639564
    19  H    3.823520   5.406617   6.178013   5.067758   6.149296
    20  H    2.270424   4.059182   4.615414   5.076637   6.064356
    21  H    3.383358   4.515319   5.123748   5.084368   6.112196
    22  C    4.193593   2.590339   1.510200   6.740799   6.924478
    23  H    4.592929   3.109441   2.153757   7.125401   7.212222
    24  H    4.697860   2.784730   2.181971   6.495157   6.571532
    25  H    4.764191   3.414650   2.111603   7.640025   7.890606
    26  C    4.449330   2.601452   3.196763   4.766522   4.541889
    27  H    5.122229   3.094828   3.472971   5.314241   5.062923
    28  H    4.546012   2.845693   3.036868   5.596433   5.417609
    29  H    5.083204   3.444498   4.216903   4.564232   4.111497
                   16         17         18         19         20
    16  H    0.000000
    17  H    1.743882   0.000000
    18  C    4.515939   4.578172   0.000000
    19  H    4.806062   4.981556   1.087462   0.000000
    20  H    4.976600   5.263688   1.088333   1.773870   0.000000
    21  H    5.197861   4.913950   1.093256   1.764511   1.760401
    22  C    7.388268   7.249197   6.576790   7.645768   6.113231
    23  H    7.705460   7.758356   7.226697   8.266412   6.681037
    24  H    7.265484   6.933745   6.872892   7.954636   6.567005
    25  H    8.285681   8.074327   6.974363   8.037324   6.468708
    26  C    5.485685   5.457026   6.687514   7.663266   6.504420
    27  H    6.159209   5.843630   7.184529   8.197664   7.069288
    28  H    6.198190   6.360298   7.092582   8.073908   6.747293
    29  H    5.249254   5.325892   7.195130   8.100736   7.081389
                   21         22         23         24         25
    21  H    0.000000
    22  C    6.494748   0.000000
    23  H    7.272567   1.092287   0.000000
    24  H    6.734305   1.086949   1.765387   0.000000
    25  H    6.769097   1.088105   1.759999   1.773442   0.000000
    26  C    6.890734   3.062990   3.033094   2.634945   4.128082
    27  H    7.234280   2.991023   3.128845   2.214788   3.936594
    28  H    7.335220   2.702426   2.311926   2.558657   3.755312
    29  H    7.492958   4.134967   3.993035   3.684311   5.200947
                   26         27         28         29
    26  C    0.000000
    27  H    1.092205   0.000000
    28  H    1.087613   1.759814   0.000000
    29  H    1.090460   1.758086   1.754348   0.000000
 Stoichiometry    C11H15NO2
 Framework group  C1[X(C11H15NO2)]
 Deg. of freedom    81
 Full point group                 C1      NOp   1
 RotChk:  IX=0 Diff= 3.45D-02
 Largest Abelian subgroup         C1      NOp   1
 Largest concise Abelian subgroup C1      NOp   1
                         Standard orientation:                         
 ---------------------------------------------------------------------
 Center     Atomic      Atomic             Coordinates (Angstroms)
 Number     Number       Type             X           Y           Z
 ---------------------------------------------------------------------
      1          8           0        2.281703   -2.288047   -0.293853
      2          8           0       -3.637297   -0.264108    0.197842
      3          7           0        0.017309    1.804723   -0.037396
      4          1           0        0.042780    2.816656   -0.048114
      5          6           0       -1.296873   -0.151142   -0.036964
      6          6           0        1.233124    1.186055   -0.053150
      7          6           0       -1.215779    1.255491   -0.017795
      8          6           0       -2.559468   -0.855562    0.056545
      9          6           0       -0.049584   -0.925721   -0.149322
     10          1           0       -0.051204   -1.769948    0.552740
     11          1           0       -0.041986   -1.469498   -1.115227
     12          6           0        1.239227   -0.216062   -0.051891
     13          6           0        2.400081   -1.087385   -0.008818
     14          6           0       -2.356757    2.216361   -0.000722
     15          1           0       -1.990292    3.242376   -0.055869
     16          1           0       -3.030074    2.041072   -0.838405
     17          1           0       -2.954306    2.106918    0.902585
     18          6           0       -2.560272   -2.367815    0.018750
     19          1           0       -3.558573   -2.700207   -0.255997
     20          1           0       -1.838006   -2.788004   -0.678560
     21          1           0       -2.332173   -2.766286    1.010919
     22          6           0        3.758207   -0.588191    0.423620
     23          1           0        4.325035   -0.220199   -0.434506
     24          1           0        3.708696    0.206147    1.163914
     25          1           0        4.302207   -1.433407    0.840330
     26          6           0        2.407176    2.107636   -0.114099
     27          1           0        2.887631    2.240208    0.857755
     28          1           0        3.160820    1.742006   -0.807810
     29          1           0        2.098537    3.094366   -0.460809
 ---------------------------------------------------------------------
 Rotational constants (GHZ):           1.0702311           0.4891896           0.3417435
 Leave Link  202 at Fri Jun 12 19:57:53 2026, MaxMem=  2147483648 cpu:               1.5 elap:               0.1
 (Enter /data/home/wyx/g16/l301.exe)
 Standard basis: TZVP (5D, 7F)
 Ernie: Thresh=  0.10000D-02 Tol=  0.10000D-05 Strict=F.
 There are   370 symmetry adapted cartesian basis functions of A   symmetry.
 There are   356 symmetry adapted basis functions of A   symmetry.
   356 basis functions,   610 primitive gaussians,   370 cartesian basis functions
    52 alpha electrons       52 beta electrons
       nuclear repulsion energy       898.0749139445 Hartrees.
 IExCor=20419 DFT=T Ex+Corr=CAM-B3LYP ExCW=0 ScaHFX=  1.000000
 ScaDFX=  1.000000  1.000000  1.000000  0.810000 ScalE2=  1.000000  1.000000
 IRadAn=      5 IRanWt=     -1 IRanGd=            0 ICorTp=0 IEmpDi=141
 HFx  wShort=  0.000000 wLong=  0.330000 cFull=  0.190000 cShort=  0.000000 cLong=  0.460000
 DFx  wShort=  0.000000 wLong=  0.330000 cFull=  0.190000 cShort=  0.000000 cLong=  0.460000
 NAtoms=   29 NActive=   29 NUniq=   29 SFac= 1.00D+00 NAtFMM=   60 NAOKFM=F Big=F
 Integral buffers will be    131072 words long.
 Raffenetti 1 integral format.
 Two-electron integral symmetry is turned on.
 R6Disp:  Grimme-D3(BJ) Dispersion energy=       -0.0260901925 Hartrees.
 Nuclear repulsion after empirical dispersion term =      898.0488237520 Hartrees.
 ------------------------------------------------------------------------------
 Polarizable Continuum Model (PCM)
 =================================
 Model                : PCM.
 Atomic radii         : UFF (Universal Force Field).
 Polarization charges : Total charges.
 Charge compensation  : None.
 Solution method      : On-the-fly selection.
 Cavity type          : Scaled VdW (van der Waals Surface) (Alpha=1.100).
 Cavity algorithm     : GePol (No added spheres)
                        Default sphere list used, NSphG=   29.
                        Lebedev-Laikov grids with approx.  5.0 points / Ang**2.
                        Smoothing algorithm: York/Karplus (Gamma=1.0000).
                        Polarization charges: spherical gaussians, with
                                              point-specific exponents (IZeta= 3).
                        Self-potential: point-specific (ISelfS= 7).
                        Self-field    : sphere-specific E.n sum rule (ISelfD= 2).
 1st derivatives      : Analytical E(r).r(x)/FMM algorithm (CHGder, D1EAlg=3).
                        Cavity 1st derivative terms included.
 Solvent              : TetraHydroFuran, Eps=   7.425700 Eps(inf)=   1.974025
 ------------------------------------------------------------------------------
 GePol: Number of generator spheres                  =      29
 GePol: Total number of spheres                      =      29
 GePol: Number of exposed spheres                    =      29 (100.00%)
 GePol: Number of points                             =    2100
 GePol: Average weight of points                     =       0.13
 GePol: Minimum weight of points                     =   0.97D-10
 GePol: Maximum weight of points                     =    0.20577
 GePol: Number of points with low weight             =     134
 GePol: Fraction of low-weight points (<1% of avg)   =       6.38%
 GePol: Cavity surface area                          =    269.895 Ang**2
 GePol: Cavity volume                                =    287.884 Ang**3
 Leave Link  301 at Fri Jun 12 19:57:54 2026, MaxMem=  2147483648 cpu:               2.9 elap:               0.1
 (Enter /data/home/wyx/g16/l302.exe)
 NPDir=0 NMtPBC=     1 NCelOv=     1 NCel=       1 NClECP=     1 NCelD=      1
         NCelK=      1 NCelE2=     1 NClLst=     1 CellRange=     0.0.
 One-electron integrals computed using PRISM.
 One-electron integral symmetry used in STVInt
 NBasis=   356 RedAO= T EigKep=  3.81D-05  NBF=   356
 NBsUse=   356 1.00D-06 EigRej= -1.00D+00 NBFU=   356
 Precomputing XC quadrature grid using
 IXCGrd= 4 IRadAn=           5 IRanWt=          -1 IRanGd=           0 AccXCQ= 0.00D+00.
 Generated NRdTot=       0 NPtTot=           0 NUsed=           0 NTot=          32
 NSgBfM=   366   366   366   366   366 MxSgAt=    29 MxSgA2=    29.
 Leave Link  302 at Fri Jun 12 19:57:56 2026, MaxMem=  2147483648 cpu:               9.0 elap:               0.3
 (Enter /data/home/wyx/g16/l303.exe)
 DipDrv:  MaxL=1.
 Leave Link  303 at Fri Jun 12 19:57:59 2026, MaxMem=  2147483648 cpu:               2.3 elap:               0.1
 (Enter /data/home/wyx/g16/l308.exe)
 Leave Link  308 at Fri Jun 12 19:58:01 2026, MaxMem=  2147483648 cpu:               8.1 elap:               0.3
 (Enter /data/home/wyx/g16/l401.exe)
 Initial guess from the checkpoint file:  "DDL-S1-intmode.chk"
 B after Tr=    -4.467622  -20.895660   -1.050071
         Rot=    0.983842   -0.010754   -0.054714    0.170134 Ang= -20.63 deg.
 Guess basis will be translated and rotated to current coordinates.
 JPrj=2 DoOrth=T DoCkMO=T.
 Leave Link  401 at Fri Jun 12 19:58:01 2026, MaxMem=  2147483648 cpu:               8.0 elap:               0.3
 (Enter /data/home/wyx/g16/l502.exe)
 Integral symmetry usage will be decided dynamically.
 Closed shell SCF:
 Using DIIS extrapolation, IDIIS=  1040.
 NGot=  2147483648 LenX=  2147194175 LenY=  2147056834
 Requested convergence on RMS density matrix=1.00D-08 within 128 cycles.
 Requested convergence on MAX density matrix=1.00D-06.
 Requested convergence on             energy=1.00D-06.
 No special actions if energy rises.
 Fock matrices will be formed incrementally for  20 cycles.

 Cycle   1  Pass 1  IDiag  1:
 FoFJK:  IHMeth= 1 ICntrl=       0 DoSepK=T KAlg= 0 I1Cent=           0 FoldK=F
 IRaf=         1 NMat=       1 IRICut=       1 DoRegI=T DoRafI=F ISym2E= 0 IDoP0=0 IntGTp=1.
 FoFCou: FMM=F IPFlag=           0 FMFlag=      100000 FMFlg1=           0
         NFxFlg=           0 DoJE=T BraDBF=F KetDBF=F FulRan=T
         wScrn=  0.000000 ICntrl=       500 IOpCl=  0 I1Cent=           0 NGrid=           0
         NMat0=    1 NMatS0=      1 NMatT0=    0 NMatD0=    1 NMtDS0=    0 NMtDT0=    0
 Symmetry not used in FoFCou.
 Inv3:  Mode=1 IEnd=    13230000.
 Iteration    1 A*A^-1 deviation from unit magnitude is 3.33D-15 for     82.
 Iteration    1 A*A^-1 deviation from orthogonality  is 2.30D-15 for   1628   1287.
 Iteration    1 A^-1*A deviation from unit magnitude is 3.11D-15 for     73.
 Iteration    1 A^-1*A deviation from orthogonality  is 1.07D-13 for   1392   1338.
 E= -633.316992108641    
 DIIS: error= 5.87D-06 at cycle   1 NSaved=   1.
 NSaved= 1 IEnMin= 1 EnMin= -633.316992108641     IErMin= 1 ErrMin= 5.87D-06
 ErrMax= 5.87D-06  0.00D+00 EMaxC= 1.00D-01 BMatC= 2.85D-08 BMatP= 2.85D-08
 IDIUse=1 WtCom= 1.00D+00 WtEn= 0.00D+00
 Coeff-Com:  0.100D+01
 Coeff:      0.100D+01
 Gap=     0.214 Goal=   None    Shift=    0.000
 RMSDP=9.46D-06 MaxDP=4.06D-04              OVMax= 9.95D-05

 Cycle   2  Pass 1  IDiag  1:
 RMSU=  9.41D-06    CP:  1.00D+00
 E= -633.316992169760     Delta-E=       -0.000000061119 Rises=F Damp=F
 DIIS: error= 3.11D-06 at cycle   2 NSaved=   2.
 NSaved= 2 IEnMin= 2 EnMin= -633.316992169760     IErMin= 2 ErrMin= 3.11D-06
 ErrMax= 3.11D-06  0.00D+00 EMaxC= 1.00D-01 BMatC= 5.01D-09 BMatP= 2.85D-08
 IDIUse=1 WtCom= 1.00D+00 WtEn= 0.00D+00
 Coeff-Com:  0.173D+00 0.827D+00
 Coeff:      0.173D+00 0.827D+00
 Gap=     0.214 Goal=   None    Shift=    0.000
 RMSDP=1.46D-06 MaxDP=6.19D-05 DE=-6.11D-08 OVMax= 1.84D-05

 Cycle   3  Pass 1  IDiag  1:
 RMSU=  1.30D-06    CP:  1.00D+00  1.07D+00
 E= -633.316992173362     Delta-E=       -0.000000003602 Rises=F Damp=F
 DIIS: error= 2.79D-06 at cycle   3 NSaved=   3.
 NSaved= 3 IEnMin= 3 EnMin= -633.316992173362     IErMin= 3 ErrMin= 2.79D-06
 ErrMax= 2.79D-06  0.00D+00 EMaxC= 1.00D-01 BMatC= 2.82D-09 BMatP= 5.01D-09
 IDIUse=1 WtCom= 1.00D+00 WtEn= 0.00D+00
 Coeff-Com: -0.980D-02 0.419D+00 0.590D+00
 Coeff:     -0.980D-02 0.419D+00 0.590D+00
 Gap=     0.214 Goal=   None    Shift=    0.000
 RMSDP=4.99D-07 MaxDP=3.13D-05 DE=-3.60D-09 OVMax= 2.41D-05

 Cycle   4  Pass 1  IDiag  1:
 RMSU=  3.34D-07    CP:  1.00D+00  1.10D+00  9.22D-01
 E= -633.316992175743     Delta-E=       -0.000000002381 Rises=F Damp=F
 DIIS: error= 8.51D-07 at cycle   4 NSaved=   4.
 NSaved= 4 IEnMin= 4 EnMin= -633.316992175743     IErMin= 4 ErrMin= 8.51D-07
 ErrMax= 8.51D-07  0.00D+00 EMaxC= 1.00D-01 BMatC= 3.27D-10 BMatP= 2.82D-09
 IDIUse=1 WtCom= 1.00D+00 WtEn= 0.00D+00
 Coeff-Com: -0.250D-01 0.845D-01 0.280D+00 0.660D+00
 Coeff:     -0.250D-01 0.845D-01 0.280D+00 0.660D+00
 Gap=     0.214 Goal=   None    Shift=    0.000
 RMSDP=2.37D-07 MaxDP=1.56D-05 DE=-2.38D-09 OVMax= 7.88D-06

 Cycle   5  Pass 1  IDiag  1:
 RMSU=  1.33D-07    CP:  1.00D+00  1.12D+00  1.04D+00  9.80D-01
 E= -633.316992176039     Delta-E=       -0.000000000296 Rises=F Damp=F
 DIIS: error= 3.26D-07 at cycle   5 NSaved=   5.
 NSaved= 5 IEnMin= 5 EnMin= -633.316992176039     IErMin= 5 ErrMin= 3.26D-07
 ErrMax= 3.26D-07  0.00D+00 EMaxC= 1.00D-01 BMatC= 3.56D-11 BMatP= 3.27D-10
 IDIUse=1 WtCom= 1.00D+00 WtEn= 0.00D+00
 Coeff-Com: -0.872D-02-0.204D-01 0.496D-01 0.273D+00 0.707D+00
 Coeff:     -0.872D-02-0.204D-01 0.496D-01 0.273D+00 0.707D+00
 Gap=     0.214 Goal=   None    Shift=    0.000
 RMSDP=9.90D-08 MaxDP=7.65D-06 DE=-2.96D-10 OVMax= 3.91D-06

 Cycle   6  Pass 1  IDiag  1:
 RMSU=  5.05D-08    CP:  1.00D+00  1.12D+00  1.09D+00  1.06D+00  1.00D+00
 E= -633.316992176096     Delta-E=       -0.000000000057 Rises=F Damp=F
 DIIS: error= 2.85D-07 at cycle   6 NSaved=   6.
 NSaved= 6 IEnMin= 6 EnMin= -633.316992176096     IErMin= 6 ErrMin= 2.85D-07
 ErrMax= 2.85D-07  0.00D+00 EMaxC= 1.00D-01 BMatC= 4.72D-12 BMatP= 3.56D-11
 IDIUse=1 WtCom= 1.00D+00 WtEn= 0.00D+00
 Coeff-Com:  0.957D-03-0.189D-01-0.113D-01-0.168D-01 0.200D+00 0.846D+00
 Coeff:      0.957D-03-0.189D-01-0.113D-01-0.168D-01 0.200D+00 0.846D+00
 Gap=     0.214 Goal=   None    Shift=    0.000
 RMSDP=4.23D-08 MaxDP=2.59D-06 DE=-5.70D-11 OVMax= 4.02D-06

 Cycle   7  Pass 1  IDiag  1:
 RMSU=  1.85D-08    CP:  1.00D+00  1.12D+00  1.11D+00  1.07D+00  1.14D+00
                    CP:  1.14D+00
 E= -633.316992176120     Delta-E=       -0.000000000024 Rises=F Damp=F
 DIIS: error= 1.32D-07 at cycle   7 NSaved=   7.
 NSaved= 7 IEnMin= 7 EnMin= -633.316992176120     IErMin= 7 ErrMin= 1.32D-07
 ErrMax= 1.32D-07  0.00D+00 EMaxC= 1.00D-01 BMatC= 2.48D-12 BMatP= 4.72D-12
 IDIUse=1 WtCom= 1.00D+00 WtEn= 0.00D+00
 Coeff-Com:  0.231D-02-0.641D-02-0.104D-01-0.700D-01-0.691D-01 0.463D+00
 Coeff-Com:  0.691D+00
 Coeff:      0.231D-02-0.641D-02-0.104D-01-0.700D-01-0.691D-01 0.463D+00
 Coeff:      0.691D+00
 Gap=     0.214 Goal=   None    Shift=    0.000
 RMSDP=2.12D-08 MaxDP=1.46D-06 DE=-2.43D-11 OVMax= 1.92D-06

 Cycle   8  Pass 1  IDiag  1:
 RMSU=  6.49D-09    CP:  1.00D+00  1.12D+00  1.13D+00  1.07D+00  1.17D+00
                    CP:  1.35D+00  1.21D+00
 E= -633.316992176116     Delta-E=        0.000000000004 Rises=F Damp=F
 DIIS: error= 5.43D-08 at cycle   8 NSaved=   8.
 NSaved= 8 IEnMin= 7 EnMin= -633.316992176120     IErMin= 8 ErrMin= 5.43D-08
 ErrMax= 5.43D-08  0.00D+00 EMaxC= 1.00D-01 BMatC= 2.88D-13 BMatP= 2.48D-12
 IDIUse=1 WtCom= 1.00D+00 WtEn= 0.00D+00
 Coeff-Com:  0.562D-03 0.230D-02 0.323D-02-0.202D-01-0.957D-01-0.520D-01
 Coeff-Com:  0.145D+00 0.102D+01
 Coeff:      0.562D-03 0.230D-02 0.323D-02-0.202D-01-0.957D-01-0.520D-01
 Coeff:      0.145D+00 0.102D+01
 Gap=     0.214 Goal=   None    Shift=    0.000
 RMSDP=1.53D-08 MaxDP=5.42D-07 DE= 4.09D-12 OVMax= 1.37D-06

 Cycle   9  Pass 1  IDiag  1:
 RMSU=  3.86D-09    CP:  1.00D+00  1.12D+00  1.13D+00  1.07D+00  1.19D+00
                    CP:  1.49D+00  1.51D+00  1.32D+00
 E= -633.316992176121     Delta-E=       -0.000000000004 Rises=F Damp=F
 DIIS: error= 2.21D-08 at cycle   9 NSaved=   9.
 NSaved= 9 IEnMin= 9 EnMin= -633.316992176121     IErMin= 9 ErrMin= 2.21D-08
 ErrMax= 2.21D-08  0.00D+00 EMaxC= 1.00D-01 BMatC= 4.07D-14 BMatP= 2.88D-13
 IDIUse=1 WtCom= 1.00D+00 WtEn= 0.00D+00
 Coeff-Com: -0.412D-04 0.150D-02 0.303D-02 0.899D-03-0.308D-01-0.665D-01
 Coeff-Com: -0.353D-01 0.410D+00 0.717D+00
 Coeff:     -0.412D-04 0.150D-02 0.303D-02 0.899D-03-0.308D-01-0.665D-01
 Coeff:     -0.353D-01 0.410D+00 0.717D+00
 Gap=     0.214 Goal=   None    Shift=    0.000
 RMSDP=2.72D-09 MaxDP=1.10D-07 DE=-4.43D-12 OVMax= 3.59D-07

 Error on total polarization charges =  0.01442
 SCF Done:  E(RCAM-B3LYP) =  -633.316992176     A.U. after    9 cycles
            NFock=  9  Conv=0.27D-08     -V/T= 2.0044
 KE= 6.305549826913D+02 PE=-3.271952344040D+03 EE= 1.110031545420D+03
 Leave Link  502 at Fri Jun 12 19:58:28 2026, MaxMem=  2147483648 cpu:             840.4 elap:              26.8
 (Enter /data/home/wyx/g16/l801.exe)
 DoSCS=F DFT=T ScalE2(SS,OS)=  1.000000  1.000000
 ExpMin= 9.52D-02 ExpMax= 2.70D+04 ExpMxC= 9.22D+02 IAcc=3 IRadAn=         5 AccDes= 0.00D+00
 HarFok:  IExCor=  205 AccDes= 0.00D+00 IRadAn=         5 IDoV=-2 UseB2=F ITyADJ=14
 ICtDFT= 12500011 ScaDFX=  1.000000  1.000000  1.000000  1.000000
 Largest valence mixing into a core orbital is  5.58D-05
 Largest core mixing into a valence orbital is  1.13D-05
 Range of M.O.s used for correlation:    15   356
 NBasis=   356 NAE=    52 NBE=    52 NFC=    14 NFV=     0
 NROrb=    342 NOA=    38 NOB=    38 NVA=   304 NVB=   304

 **** Warning!!: The largest alpha MO coefficient is  0.60726132D+02

 Leave Link  801 at Fri Jun 12 19:58:29 2026, MaxMem=  2147483648 cpu:               6.6 elap:               0.3
 (Enter /data/home/wyx/g16/l914.exe)
 RHF ground state
 Two-electron integrals replicated using symmetry.
 MDV=  2147483648 DFT=T DoStab=F Mixed=T DoRPA=T DoScal=F NonHer=T
 NEqPCM:  Using equilibrium solvation (IEInf=0, Eps=   7.4257, EpsInf=   1.9740)
 Making orbital integer symmetry assigments:
 Orbital symmetries:
       Occupied  (A) (A) (A) (A) (A) (A) (A) (A) (A) (A) (A) (A)
                 (A) (A) (A) (A) (A) (A) (A) (A) (A) (A) (A) (A)
                 (A) (A) (A) (A) (A) (A) (A) (A) (A) (A) (A) (A)
                 (A) (A) (A) (A) (A) (A) (A) (A) (A) (A) (A) (A)
                 (A) (A) (A) (A)
       Virtual   (A) (A) (A) (A) (A) (A) (A) (A) (A) (A) (A) (A)
                 (A) (A) (A) (A) (A) (A) (A) (A) (A) (A) (A) (A)
                 (A) (A) (A) (A) (A) (A) (A) (A) (A) (A) (A) (A)
                 (A) (A) (A) (A) (A) (A) (A) (A) (A) (A) (A) (A)
                 (A) (A) (A) (A) (A) (A) (A) (A) (A) (A) (A) (A)
                 (A) (A) (A) (A) (A) (A) (A) (A) (A) (A) (A) (A)
                 (A) (A) (A) (A) (A) (A) (A) (A) (A) (A) (A) (A)
                 (A) (A) (A) (A) (A) (A) (A) (A) (A) (A) (A) (A)
                 (A) (A) (A) (A) (A) (A) (A) (A) (A) (A) (A) (A)
                 (A) (A) (A) (A) (A) (A) (A) (A) (A) (A) (A) (A)
                 (A) (A) (A) (A) (A) (A) (A) (A) (A) (A) (A) (A)
                 (A) (A) (A) (A) (A) (A) (A) (A) (A) (A) (A) (A)
                 (A) (A) (A) (A) (A) (A) (A) (A) (A) (A) (A) (A)
                 (A) (A) (A) (A) (A) (A) (A) (A) (A) (A) (A) (A)
                 (A) (A) (A) (A) (A) (A) (A) (A) (A) (A) (A) (A)
                 (A) (A) (A) (A) (A) (A) (A) (A) (A) (A) (A) (A)
                 (A) (A) (A) (A) (A) (A) (A) (A) (A) (A) (A) (A)
                 (A) (A) (A) (A) (A) (A) (A) (A) (A) (A) (A) (A)
                 (A) (A) (A) (A) (A) (A) (A) (A) (A) (A) (A) (A)
                 (A) (A) (A) (A) (A) (A) (A) (A) (A) (A) (A) (A)
                 (A) (A) (A) (A) (A) (A) (A) (A) (A) (A) (A) (A)
                 (A) (A) (A) (A) (A) (A) (A) (A) (A) (A) (A) (A)
                 (A) (A) (A) (A) (A) (A) (A) (A) (A) (A) (A) (A)
                 (A) (A) (A) (A) (A) (A) (A) (A) (A) (A) (A) (A)
                 (A) (A) (A) (A) (A) (A) (A) (A) (A) (A) (A) (A)
                 (A) (A) (A) (A)
     4 initial guesses have been made.
 Convergence on wavefunction:    0.000001000000000
 Davidson Disk Diagonalization:  ConvIn= 1.00D-06 SkipCon=T Conv= 1.00D-06.
 Max sub-space:  2000 roots to seek:     4 dimension of matrix:        23104
 Iteration     1 Dimension     4 NMult     0 NNew      4
 CISAX will form     4 AO SS matrices at one time.
 NMat=     4 NSing=     4 JSym2X= 0.
 FoFJK:  IHMeth= 1 ICntrl=       0 DoSepK=T KAlg= 0 I1Cent=           0 FoldK=F
 IRaf=         1 NMat=       8 IRICut=       1 DoRegI=T DoRafI=F ISym2E= 0 IDoP0=0 IntGTp=1.
 FoFCou: FMM=F IPFlag=           0 FMFlag=      100000 FMFlg1=           0
         NFxFlg=           0 DoJE=F BraDBF=F KetDBF=F FulRan=T
         wScrn=  0.000000 ICntrl=       500 IOpCl=  0 I1Cent=           0 NGrid=           0
         NMat0=    4 NMatS0=      4 NMatT0=    0 NMatD0=    4 NMtDS0=    0 NMtDT0=    0
 Symmetry not used in FoFCou.
 Excitation Energies [eV] at current iteration:
 Root      1 :     3.315413116438885
 Root      2 :     4.662714112450309
 Root      3 :     5.009418070924341
 Root      4 :     5.615544310483022
 Iteration     2 Dimension     6 NMult     4 NNew      2
 CISAX will form     2 AO SS matrices at one time.
 NMat=     2 NSing=     2 JSym2X= 0.
 Root      1 not converged, maximum delta is    0.035781261169486
 Excitation Energies [eV] at current iteration:
 Root      1 :     2.847215415823179   Change is   -0.468197700615705
 Iteration     3 Dimension     8 NMult     6 NNew      2
 CISAX will form     2 AO SS matrices at one time.
 NMat=     2 NSing=     2 JSym2X= 0.
 Root      1 not converged, maximum delta is    0.013224259398133
 Excitation Energies [eV] at current iteration:
 Root      1 :     2.829540323755229   Change is   -0.017675092067950
 Iteration     4 Dimension    10 NMult     8 NNew      2
 CISAX will form     2 AO SS matrices at one time.
 NMat=     2 NSing=     2 JSym2X= 0.
 Root      1 not converged, maximum delta is    0.008010077163067
 Excitation Energies [eV] at current iteration:
 Root      1 :     2.824311645962811   Change is   -0.005228677792418
 Iteration     5 Dimension    12 NMult    10 NNew      2
 CISAX will form     2 AO SS matrices at one time.
 NMat=     2 NSing=     2 JSym2X= 0.
 Root      1 not converged, maximum delta is    0.000867734491757
 Excitation Energies [eV] at current iteration:
 Root      1 :     2.824078223757040   Change is   -0.000233422205771
 Iteration     6 Dimension    14 NMult    12 NNew      2
 CISAX will form     2 AO SS matrices at one time.
 NMat=     2 NSing=     2 JSym2X= 0.
 Root      1 not converged, maximum delta is    0.000215843545141
 Excitation Energies [eV] at current iteration:
 Root      1 :     2.824057447926171   Change is   -0.000020775830870
 Iteration     7 Dimension    16 NMult    14 NNew      2
 CISAX will form     2 AO SS matrices at one time.
 NMat=     2 NSing=     2 JSym2X= 0.
 Root      1 not converged, maximum delta is    0.000142376813020
 Excitation Energies [eV] at current iteration:
 Root      1 :     2.824056286049556   Change is   -0.000001161876614
 Iteration     8 Dimension    18 NMult    16 NNew      2
 CISAX will form     2 AO SS matrices at one time.
 NMat=     2 NSing=     2 JSym2X= 0.
 Root      1 not converged, maximum delta is    0.000080265458685
 Excitation Energies [eV] at current iteration:
 Root      1 :     2.824056051228399   Change is   -0.000000234821157
 Iteration     9 Dimension    20 NMult    18 NNew      2
 CISAX will form     2 AO SS matrices at one time.
 NMat=     2 NSing=     2 JSym2X= 0.
 Root      1 not converged, maximum delta is    0.000027495833492
 Excitation Energies [eV] at current iteration:
 Root      1 :     2.824056023671409   Change is   -0.000000027556990
 Iteration    10 Dimension    22 NMult    20 NNew      2
 CISAX will form     2 AO SS matrices at one time.
 NMat=     2 NSing=     2 JSym2X= 0.
 Root      1 not converged, maximum delta is    0.000004731267659
 Excitation Energies [eV] at current iteration:
 Root      1 :     2.824056020845349   Change is   -0.000000002826060
 Iteration    11 Dimension    24 NMult    22 NNew      2
 CISAX will form     2 AO SS matrices at one time.
 NMat=     2 NSing=     2 JSym2X= 0.
 Root      1 not converged, maximum delta is    0.000002101641119
 Excitation Energies [eV] at current iteration:
 Root      1 :     2.824056020557279   Change is   -0.000000000288070
 Iteration    12 Dimension    26 NMult    24 NNew      2
 CISAX will form     2 AO SS matrices at one time.
 NMat=     2 NSing=     2 JSym2X= 0.
 Root      1 has converged.
 Excitation Energies [eV] at current iteration:
 Root      1 :     2.824056020534515   Change is   -0.000000000022764
 Convergence achieved on expansion vectors.
 ***********************************************************************
 Excited states from <AA,BB:AA,BB> singles matrix:
 ***********************************************************************
 
 1PDM for each excited state written to RWF  633
 Ground to excited state transition densities written to RWF  633
 Ground to excited state transition electric dipole moments (Au):
       state          X           Y           Z        Dip. S.      Osc.
         1         1.6263     -0.1755     -0.0481      2.6780      0.1853
 Ground to excited state transition velocity dipole moments (Au):
       state          X           Y           Z        Dip. S.      Osc.
         1        -0.1627      0.0144      0.0050      0.0267      0.1714
 Ground to excited state transition magnetic dipole moments (Au):
       state          X           Y           Z
         1         0.0080     -0.0631      1.4800
 Ground to excited state transition velocity quadrupole moments (Au):
       state          XX          YY          ZZ          XY          XZ          YZ
         1         0.1638     -0.0867     -0.0064      0.4665     -0.0217     -0.0191
 <0|del|b> * <b|rxdel|0> + <0|del|b> * <b|delr+rdel|0>
 Rotatory Strengths (R) in cgs (10**-40 erg-esu-cm/Gauss)
       state          XX          YY          ZZ    R(velocity)    E-M Angle
         1        31.2419     23.4819    -19.1474     11.8588       88.76
 1/2[<0|r|b>*<b|rxdel|0> + (<0|rxdel|b>*<b|r|0>)*]
 Rotatory Strengths (R) in cgs (10**-40 erg-esu-cm/Gauss)
       state          XX          YY          ZZ     R(length)
         1        -9.1636     -7.8251     50.2890     11.1001
  1/2[<0|del|b>*<b|r|0> + (<0|r|b>*<b|del|0>)*] (Au)
       state          X           Y           Z        Dip. S.   Osc.(frdel)
         1        -0.2645     -0.0025     -0.0002      0.2673      0.1782

 Excitation energies and oscillator strengths:
 
 Excited State   1:      Singlet-A      2.8241 eV  439.03 nm  f=0.1853  <S**2>=0.000
      52 -> 53         0.70203
 This state for optimization and/or second-order correction.
 Total Energy, E(TD-HF/TD-DFT) =  -633.213210027    
 Copying the excited state density for this state as the 1-particle RhoCI density.
 SavETr:  write IOETrn=   770 NScale= 10 NData=  16 NLR=1 NState=    1 LETran=      28.
 The selected state is a singlet.
 CISGrd: IGrad=2 NXY=2 DFT=T
 CISAX will form     1 AO SS matrices at one time.
 NMat=     1 NSing=     1 JSym2X= 0.
 GePol: Maximum number of non-zero 1st derivatives   =     202
 Leave Link  914 at Fri Jun 12 20:00:33 2026, MaxMem=  2147483648 cpu:            3867.3 elap:             121.4
 (Enter /data/home/wyx/g16/l1002.exe)
 Minotr:  Closed shell wavefunction.
          Computing CIS/TDA/TD derivatives.
          Using Z-Vector for PSCF gradient.
          Skipping F1 and S1 gradient terms here.
          IDoAtm=11111111111111111111111111111
 NEqPCM:  Using equilibrium solvation (IEInf=0, Eps=   7.4257, EpsInf=   1.9740)
          Frozen-core window.
          Direct CPHF calculation.
          Differentiating once with respect to electric field.
                with respect to dipole field.
          Differentiating once with respect to nuclear coordinates.
          Requested convergence is 1.0D-10 RMS, and 1.0D-09 maximum.
          NewPWx=F KeepS1=T KeepF1=T KeepIn=T MapXYZ=F SortEE=F KeepMc=T.
 Two-electron integral symmetry used by symmetrizing perturbed Fock matrices.
          MDV=    2147483648 using IRadAn=       5.
          Solving linear equations separately, MaxMat=     384.
          There are     1 degrees of freedom in the 1st order CPHF.  IDoFFX=0 NUNeed=     1.
 FoFJK:  IHMeth= 1 ICntrl=       0 DoSepK=T KAlg= 0 I1Cent=           0 FoldK=F
 IRaf=         1 NMat=       1 IRICut=       1 DoRegI=T DoRafI=F ISym2E=-1 IDoP0=0 IntGTp=1.
 FoFCou: FMM=F IPFlag=           0 FMFlag=      100000 FMFlg1=           0
         NFxFlg=           0 DoJE=T BraDBF=F KetDBF=F FulRan=T
         wScrn=  0.000000 ICntrl=       500 IOpCl=  0 I1Cent=           0 NGrid=           0
         NMat0=    1 NMatS0=      1 NMatT0=    0 NMatD0=    1 NMtDS0=    0 NMtDT0=    0
 Petite list used in FoFCou.
 LinEq1:  Iter=  0 NonCon=     1 RMS=3.59D-03 Max=1.63D-01 NDo=     1
 AX will form     1 AO Fock derivatives at one time.
 LinEq1:  Iter=  1 NonCon=     1 RMS=1.49D-03 Max=7.06D-02 NDo=     1
 LinEq1:  Iter=  2 NonCon=     1 RMS=7.05D-04 Max=2.13D-02 NDo=     1
 LinEq1:  Iter=  3 NonCon=     1 RMS=4.36D-04 Max=1.48D-02 NDo=     1
 LinEq1:  Iter=  4 NonCon=     1 RMS=2.08D-04 Max=1.13D-02 NDo=     1
 LinEq1:  Iter=  5 NonCon=     1 RMS=1.04D-04 Max=5.06D-03 NDo=     1
 LinEq1:  Iter=  6 NonCon=     1 RMS=6.57D-05 Max=2.89D-03 NDo=     1
 LinEq1:  Iter=  7 NonCon=     1 RMS=3.21D-05 Max=1.74D-03 NDo=     1
 LinEq1:  Iter=  8 NonCon=     1 RMS=1.48D-05 Max=4.18D-04 NDo=     1
 LinEq1:  Iter=  9 NonCon=     1 RMS=7.08D-06 Max=1.79D-04 NDo=     1
 LinEq1:  Iter= 10 NonCon=     1 RMS=4.01D-06 Max=1.21D-04 NDo=     1
 LinEq1:  Iter= 11 NonCon=     1 RMS=2.27D-06 Max=6.53D-05 NDo=     1
 LinEq1:  Iter= 12 NonCon=     1 RMS=9.69D-07 Max=2.42D-05 NDo=     1
 LinEq1:  Iter= 13 NonCon=     1 RMS=3.87D-07 Max=1.23D-05 NDo=     1
 LinEq1:  Iter= 14 NonCon=     1 RMS=1.42D-07 Max=5.32D-06 NDo=     1
 LinEq1:  Iter= 15 NonCon=     1 RMS=6.23D-08 Max=1.65D-06 NDo=     1
 LinEq1:  Iter= 16 NonCon=     1 RMS=3.47D-08 Max=1.36D-06 NDo=     1
 LinEq1:  Iter= 17 NonCon=     1 RMS=1.32D-08 Max=3.67D-07 NDo=     1
 LinEq1:  Iter= 18 NonCon=     1 RMS=6.18D-09 Max=1.17D-07 NDo=     1
 LinEq1:  Iter= 19 NonCon=     1 RMS=2.36D-09 Max=7.92D-08 NDo=     1
 LinEq1:  Iter= 20 NonCon=     1 RMS=7.75D-10 Max=1.26D-08 NDo=     1
 LinEq1:  Iter= 21 NonCon=     1 RMS=3.62D-10 Max=8.86D-09 NDo=     1
 LinEq1:  Iter= 22 NonCon=     1 RMS=1.20D-10 Max=3.83D-09 NDo=     1
 LinEq1:  Iter= 23 NonCon=     0 RMS=2.68D-11 Max=5.97D-10 NDo=     1
 Linear equations converged to 1.000D-10 1.000D-09 after    23 iterations.
 End of Minotr F.D. properties file   721 does not exist.
 End of Minotr F.D. properties file   722 does not exist.
 End of Minotr F.D. properties file   788 does not exist.
 Leave Link 1002 at Fri Jun 12 20:02:07 2026, MaxMem=  2147483648 cpu:            2926.1 elap:              92.8
 (Enter /data/home/wyx/g16/l601.exe)
 Copying SCF densities to generalized density rwf, IOpCl= 0 IROHF=0.

 **********************************************************************

            Population analysis using the SCF density.

 **********************************************************************

 Orbital symmetries:
       Occupied  (A) (A) (A) (A) (A) (A) (A) (A) (A) (A) (A) (A)
                 (A) (A) (A) (A) (A) (A) (A) (A) (A) (A) (A) (A)
                 (A) (A) (A) (A) (A) (A) (A) (A) (A) (A) (A) (A)
                 (A) (A) (A) (A) (A) (A) (A) (A) (A) (A) (A) (A)
                 (A) (A) (A) (A)
       Virtual   (A) (A) (A) (A) (A) (A) (A) (A) (A) (A) (A) (A)
                 (A) (A) (A) (A) (A) (A) (A) (A) (A) (A) (A) (A)
                 (A) (A) (A) (A) (A) (A) (A) (A) (A) (A) (A) (A)
                 (A) (A) (A) (A) (A) (A) (A) (A) (A) (A) (A) (A)
                 (A) (A) (A) (A) (A) (A) (A) (A) (A) (A) (A) (A)
                 (A) (A) (A) (A) (A) (A) (A) (A) (A) (A) (A) (A)
                 (A) (A) (A) (A) (A) (A) (A) (A) (A) (A) (A) (A)
                 (A) (A) (A) (A) (A) (A) (A) (A) (A) (A) (A) (A)
                 (A) (A) (A) (A) (A) (A) (A) (A) (A) (A) (A) (A)
                 (A) (A) (A) (A) (A) (A) (A) (A) (A) (A) (A) (A)
                 (A) (A) (A) (A) (A) (A) (A) (A) (A) (A) (A) (A)
                 (A) (A) (A) (A) (A) (A) (A) (A) (A) (A) (A) (A)
                 (A) (A) (A) (A) (A) (A) (A) (A) (A) (A) (A) (A)
                 (A) (A) (A) (A) (A) (A) (A) (A) (A) (A) (A) (A)
                 (A) (A) (A) (A) (A) (A) (A) (A) (A) (A) (A) (A)
                 (A) (A) (A) (A) (A) (A) (A) (A) (A) (A) (A) (A)
                 (A) (A) (A) (A) (A) (A) (A) (A) (A) (A) (A) (A)
                 (A) (A) (A) (A) (A) (A) (A) (A) (A) (A) (A) (A)
                 (A) (A) (A) (A) (A) (A) (A) (A) (A) (A) (A) (A)
                 (A) (A) (A) (A) (A) (A) (A) (A) (A) (A) (A) (A)
                 (A) (A) (A) (A) (A) (A) (A) (A) (A) (A) (A) (A)
                 (A) (A) (A) (A) (A) (A) (A) (A) (A) (A) (A) (A)
                 (A) (A) (A) (A) (A) (A) (A) (A) (A) (A) (A) (A)
                 (A) (A) (A) (A) (A) (A) (A) (A) (A) (A) (A) (A)
                 (A) (A) (A) (A) (A) (A) (A) (A) (A) (A) (A) (A)
                 (A) (A) (A) (A)
 The electronic state is 1-A.
 Alpha  occ. eigenvalues --  -19.17799 -19.16842 -14.44994 -10.33368 -10.33086
 Alpha  occ. eigenvalues --  -10.32784 -10.32453 -10.26384 -10.25536 -10.25243
 Alpha  occ. eigenvalues --  -10.24794 -10.24414 -10.24224 -10.23709  -1.11237
 Alpha  occ. eigenvalues --   -1.10583  -1.08666  -0.91451  -0.90553  -0.83946
 Alpha  occ. eigenvalues --   -0.82687  -0.81662  -0.78492  -0.73797  -0.72363
 Alpha  occ. eigenvalues --   -0.68717  -0.61521  -0.58291  -0.57080  -0.55143
 Alpha  occ. eigenvalues --   -0.54652  -0.53992  -0.52448  -0.51729  -0.50866
 Alpha  occ. eigenvalues --   -0.49683  -0.49503  -0.49225  -0.48710  -0.47972
 Alpha  occ. eigenvalues --   -0.47352  -0.45309  -0.45073  -0.44121  -0.43365
 Alpha  occ. eigenvalues --   -0.42090  -0.42024  -0.41391  -0.32542  -0.32150
 Alpha  occ. eigenvalues --   -0.31098  -0.24927
 Alpha virt. eigenvalues --   -0.03522   0.02497   0.06193   0.07992   0.08352
 Alpha virt. eigenvalues --    0.09639   0.10692   0.11351   0.12469   0.13329
 Alpha virt. eigenvalues --    0.13805   0.14798   0.15514   0.16392   0.16929
 Alpha virt. eigenvalues --    0.17386   0.17794   0.18018   0.18537   0.19241
 Alpha virt. eigenvalues --    0.19774   0.21887   0.22621   0.23325   0.23823
 Alpha virt. eigenvalues --    0.24056   0.24668   0.25595   0.26327   0.26708
 Alpha virt. eigenvalues --    0.27410   0.28030   0.28387   0.29619   0.30170
 Alpha virt. eigenvalues --    0.31478   0.31844   0.32206   0.33338   0.33955
 Alpha virt. eigenvalues --    0.34626   0.35628   0.36678   0.37413   0.38512
 Alpha virt. eigenvalues --    0.39600   0.40843   0.41319   0.41735   0.42398
 Alpha virt. eigenvalues --    0.43923   0.44851   0.45498   0.46141   0.46479
 Alpha virt. eigenvalues --    0.47250   0.47628   0.47790   0.48464   0.49131
 Alpha virt. eigenvalues --    0.49642   0.50486   0.51188   0.51226   0.51548
 Alpha virt. eigenvalues --    0.52210   0.52579   0.53206   0.53565   0.54168
 Alpha virt. eigenvalues --    0.54238   0.55157   0.55709   0.56523   0.58113
 Alpha virt. eigenvalues --    0.58349   0.59962   0.61034   0.61887   0.63130
 Alpha virt. eigenvalues --    0.64158   0.64869   0.66196   0.66961   0.67414
 Alpha virt. eigenvalues --    0.68693   0.69121   0.70385   0.70709   0.71927
 Alpha virt. eigenvalues --    0.72799   0.74899   0.75226   0.76118   0.77489
 Alpha virt. eigenvalues --    0.79000   0.80858   0.83536   0.86809   0.87519
 Alpha virt. eigenvalues --    0.91986   0.96121   1.02483   1.04317   1.21681
 Alpha virt. eigenvalues --    1.24067   1.27245   1.27991   1.28862   1.30080
 Alpha virt. eigenvalues --    1.31944   1.33210   1.34559   1.35152   1.36310
 Alpha virt. eigenvalues --    1.36911   1.37807   1.38392   1.38784   1.39375
 Alpha virt. eigenvalues --    1.39867   1.40012   1.40618   1.41323   1.42140
 Alpha virt. eigenvalues --    1.43188   1.43209   1.44153   1.45575   1.47101
 Alpha virt. eigenvalues --    1.48110   1.49314   1.49392   1.50124   1.50828
 Alpha virt. eigenvalues --    1.51345   1.52081   1.53024   1.55699   1.59039
 Alpha virt. eigenvalues --    1.59694   1.59872   1.60988   1.61679   1.62012
 Alpha virt. eigenvalues --    1.62538   1.62802   1.63230   1.64438   1.65555
 Alpha virt. eigenvalues --    1.66189   1.66917   1.67469   1.68045   1.68701
 Alpha virt. eigenvalues --    1.68999   1.69672   1.70305   1.70907   1.72460
 Alpha virt. eigenvalues --    1.74120   1.74504   1.75375   1.76370   1.78465
 Alpha virt. eigenvalues --    1.81511   1.82885   1.83645   1.85468   1.86380
 Alpha virt. eigenvalues --    1.86438   1.87794   1.88593   1.89144   1.90165
 Alpha virt. eigenvalues --    1.91245   1.94236   1.94930   1.98803   1.99721
 Alpha virt. eigenvalues --    2.01568   2.03722   2.05751   2.06794   2.09249
 Alpha virt. eigenvalues --    2.09791   2.11235   2.15715   2.17398   2.19439
 Alpha virt. eigenvalues --    2.20512   2.21126   2.22063   2.22881   2.26285
 Alpha virt. eigenvalues --    2.26648   2.27262   2.29066   2.30760   2.32069
 Alpha virt. eigenvalues --    2.33199   2.34306   2.36821   2.37550   2.38805
 Alpha virt. eigenvalues --    2.39451   2.40106   2.41262   2.42646   2.44955
 Alpha virt. eigenvalues --    2.45362   2.46990   2.48650   2.49266   2.51154
 Alpha virt. eigenvalues --    2.52328   2.53712   2.54383   2.56265   2.57169
 Alpha virt. eigenvalues --    2.58596   2.60791   2.61663   2.62197   2.63316
 Alpha virt. eigenvalues --    2.64629   2.65163   2.66506   2.67245   2.68356
 Alpha virt. eigenvalues --    2.71336   2.71719   2.73910   2.74426   2.75423
 Alpha virt. eigenvalues --    2.76295   2.77250   2.77885   2.78203   2.78811
 Alpha virt. eigenvalues --    2.80663   2.81153   2.83194   2.83616   2.85007
 Alpha virt. eigenvalues --    2.85469   2.86236   2.88560   2.88922   2.92126
 Alpha virt. eigenvalues --    2.97062   2.98376   3.01042   3.06971   3.10485
 Alpha virt. eigenvalues --    3.12055   3.13537   3.18186   3.19346   3.21351
 Alpha virt. eigenvalues --    3.22207   3.23038   3.24897   3.25919   3.26244
 Alpha virt. eigenvalues --    3.29418   3.30264   3.31953   3.34681   3.36459
 Alpha virt. eigenvalues --    3.38214   3.38563   3.38972   3.39230   3.41304
 Alpha virt. eigenvalues --    3.41784   3.43517   3.44568   3.47458   3.48003
 Alpha virt. eigenvalues --    3.49762   3.50270   3.56070   3.58233   3.59663
 Alpha virt. eigenvalues --    3.61388   3.90850   4.00689   4.32749   4.35804
 Alpha virt. eigenvalues --   21.68645  21.80772  22.07570  22.09853  22.11241
 Alpha virt. eigenvalues --   22.14397  22.14783  22.16984  22.18667  22.24891
 Alpha virt. eigenvalues --   22.26794  31.91031  43.64080  43.66894
          Condensed to atoms (all electrons):
               1          2          3          4          5          6
     1  O    7.930870   0.000000  -0.000158   0.000019   0.019494   0.007705
     2  O    0.000000   7.984658   0.000359   0.000010  -0.191576   0.001440
     3  N   -0.000158   0.000359   6.355841   0.367844  -0.120971   0.330130
     4  H    0.000019   0.000010   0.367844   0.413880   0.015880  -0.045362
     5  C    0.019494  -0.191576  -0.120971   0.015880   7.218867  -0.079386
     6  C    0.007705   0.001440   0.330130  -0.045362  -0.079386   5.544822
     7  C   -0.000019  -0.051321   0.394355  -0.036265   0.483822  -0.136252
     8  C   -0.000820   0.695458   0.004177  -0.000929  -0.382226   0.035552
     9  C    0.001422   0.029123   0.017446   0.000282  -0.765092  -0.038939
    10  H    0.007317   0.000023  -0.001047   0.000026  -0.102191   0.028678
    11  H    0.009383   0.000099   0.003101   0.000041  -0.086515  -0.017929
    12  C   -0.231979  -0.003445  -0.087967   0.014293   0.195539  -0.029826
    13  C    0.712691  -0.000012   0.001586   0.000593   0.086418   0.104464
    14  C   -0.000007  -0.006343  -0.032353  -0.010573  -0.086305   0.009877
    15  H   -0.000000   0.004076   0.004418   0.002463   0.022938   0.006279
    16  H    0.000000   0.002332  -0.000768   0.000803  -0.005296  -0.001439
    17  H   -0.000000   0.004109  -0.001689   0.000901  -0.010950  -0.001082
    18  C    0.000339  -0.097169  -0.000474   0.000021  -0.241310  -0.000189
    19  H    0.000001   0.006867   0.000009  -0.000001   0.023844   0.000010
    20  H    0.000217   0.004385   0.000102   0.000001   0.045298  -0.001245
    21  H   -0.000011   0.000631   0.000010  -0.000001   0.001623   0.000169
    22  C   -0.105476   0.000000  -0.000250   0.000117   0.003344  -0.026446
    23  H    0.001418   0.000000   0.000031  -0.000010  -0.000015   0.007228
    24  H    0.005194  -0.000000   0.000256  -0.000057  -0.000756  -0.022449
    25  H    0.006339   0.000000   0.000018  -0.000002  -0.000111  -0.000817
    26  C    0.000667   0.000011  -0.025237  -0.006844   0.000642   0.203269
    27  H   -0.000054  -0.000000  -0.002276   0.000517   0.000352  -0.031372
    28  H   -0.000205  -0.000000   0.000570   0.000680   0.000152  -0.050028
    29  H    0.000021   0.000000   0.002060   0.002391  -0.000302  -0.047376
               7          8          9         10         11         12
     1  O   -0.000019  -0.000820   0.001422   0.007317   0.009383  -0.231979
     2  O   -0.051321   0.695458   0.029123   0.000023   0.000099  -0.003445
     3  N    0.394355   0.004177   0.017446  -0.001047   0.003101  -0.087967
     4  H   -0.036265  -0.000929   0.000282   0.000026   0.000041   0.014293
     5  C    0.483822  -0.382226  -0.765092  -0.102191  -0.086515   0.195539
     6  C   -0.136252   0.035552  -0.038939   0.028678  -0.017929  -0.029826
     7  C    5.433575  -0.251618  -0.239400   0.014164  -0.005846   0.033539
     8  C   -0.251618   5.441547   0.247448  -0.010064   0.000895  -0.057838
     9  C   -0.239400   0.247448   6.445128   0.517068   0.454216  -0.160542
    10  H    0.014164  -0.010064   0.517068   0.549049  -0.054606  -0.104841
    11  H   -0.005846   0.000895   0.454216  -0.054606   0.583967  -0.018951
    12  C    0.033539  -0.057838  -0.160542  -0.104841  -0.018951   7.375901
    13  C    0.021807  -0.010544  -0.222560  -0.000188  -0.010359  -0.534589
    14  C    0.297806  -0.031121   0.003011   0.000314  -0.000484   0.001899
    15  H   -0.087314   0.005289   0.001045  -0.000002   0.000034  -0.001769
    16  H   -0.023110  -0.006314  -0.000247  -0.000054   0.000162   0.000307
    17  H   -0.018755  -0.001494   0.001035   0.000065  -0.000058   0.000143
    18  C   -0.002534   0.326514  -0.001642   0.007314  -0.015949   0.000951
    19  H    0.000113  -0.053358  -0.002618   0.000556   0.000193  -0.000135
    20  H    0.004675  -0.073954  -0.006504  -0.008252   0.003277   0.006879
    21  H   -0.000479  -0.024519  -0.009765  -0.000127   0.000672  -0.002156
    22  C    0.000120  -0.000047   0.010979  -0.002120   0.004195  -0.242869
    23  H   -0.000008   0.000001  -0.001921  -0.000139   0.000179  -0.011147
    24  H   -0.000027   0.000014   0.002137   0.000155  -0.000264   0.065411
    25  H    0.000012   0.000001   0.000306   0.000014  -0.000129   0.018122
    26  C    0.002448   0.000894   0.020578   0.000208  -0.000705  -0.086173
    27  H   -0.000803  -0.000015  -0.000590   0.000035  -0.000002  -0.016942
    28  H   -0.000786   0.000000   0.000141   0.000013  -0.000087  -0.007357
    29  H    0.002880   0.000000  -0.000447  -0.000015   0.000076   0.022945
              13         14         15         16         17         18
     1  O    0.712691  -0.000007  -0.000000   0.000000  -0.000000   0.000339
     2  O   -0.000012  -0.006343   0.004076   0.002332   0.004109  -0.097169
     3  N    0.001586  -0.032353   0.004418  -0.000768  -0.001689  -0.000474
     4  H    0.000593  -0.010573   0.002463   0.000803   0.000901   0.000021
     5  C    0.086418  -0.086305   0.022938  -0.005296  -0.010950  -0.241310
     6  C    0.104464   0.009877   0.006279  -0.001439  -0.001082  -0.000189
     7  C    0.021807   0.297806  -0.087314  -0.023110  -0.018755  -0.002534
     8  C   -0.010544  -0.031121   0.005289  -0.006314  -0.001494   0.326514
     9  C   -0.222560   0.003011   0.001045  -0.000247   0.001035  -0.001642
    10  H   -0.000188   0.000314  -0.000002  -0.000054   0.000065   0.007314
    11  H   -0.010359  -0.000484   0.000034   0.000162  -0.000058  -0.015949
    12  C   -0.534589   0.001899  -0.001769   0.000307   0.000143   0.000951
    13  C    5.629960   0.000156  -0.000044  -0.000006  -0.000005   0.001640
    14  C    0.000156   5.018714   0.389814   0.413303   0.408371   0.000706
    15  H   -0.000044   0.389814   0.582035  -0.027179  -0.025513   0.000213
    16  H   -0.000006   0.413303  -0.027179   0.508100  -0.025500  -0.000161
    17  H   -0.000005   0.408371  -0.025513  -0.025500   0.503119   0.000153
    18  C    0.001640   0.000706   0.000213  -0.000161   0.000153   5.293021
    19  H   -0.000012   0.000026  -0.000004   0.000040  -0.000040   0.397666
    20  H    0.001078   0.000121  -0.000014  -0.000026  -0.000003   0.379742
    21  H   -0.000162  -0.000167  -0.000005   0.000007  -0.000009   0.401844
    22  C    0.262706  -0.000003   0.000002  -0.000000  -0.000000   0.000027
    23  H   -0.020496  -0.000001   0.000000  -0.000000   0.000000  -0.000001
    24  H   -0.101904   0.000003   0.000000  -0.000000   0.000000  -0.000000
    25  H   -0.031427   0.000000   0.000000   0.000000  -0.000000  -0.000000
    26  C   -0.052319   0.000314   0.000355  -0.000010  -0.000044   0.000001
    27  H    0.006699  -0.000080  -0.000008   0.000003  -0.000004  -0.000000
    28  H   -0.001179   0.000032  -0.000006  -0.000002   0.000001   0.000000
    29  H   -0.001559  -0.000067   0.000095  -0.000001  -0.000001  -0.000000
              19         20         21         22         23         24
     1  O    0.000001   0.000217  -0.000011  -0.105476   0.001418   0.005194
     2  O    0.006867   0.004385   0.000631   0.000000   0.000000  -0.000000
     3  N    0.000009   0.000102   0.000010  -0.000250   0.000031   0.000256
     4  H   -0.000001   0.000001  -0.000001   0.000117  -0.000010  -0.000057
     5  C    0.023844   0.045298   0.001623   0.003344  -0.000015  -0.000756
     6  C    0.000010  -0.001245   0.000169  -0.026446   0.007228  -0.022449
     7  C    0.000113   0.004675  -0.000479   0.000120  -0.000008  -0.000027
     8  C   -0.053358  -0.073954  -0.024519  -0.000047   0.000001   0.000014
     9  C   -0.002618  -0.006504  -0.009765   0.010979  -0.001921   0.002137
    10  H    0.000556  -0.008252  -0.000127  -0.002120  -0.000139   0.000155
    11  H    0.000193   0.003277   0.000672   0.004195   0.000179  -0.000264
    12  C   -0.000135   0.006879  -0.002156  -0.242869  -0.011147   0.065411
    13  C   -0.000012   0.001078  -0.000162   0.262706  -0.020496  -0.101904
    14  C    0.000026   0.000121  -0.000167  -0.000003  -0.000001   0.000003
    15  H   -0.000004  -0.000014  -0.000005   0.000002   0.000000   0.000000
    16  H    0.000040  -0.000026   0.000007  -0.000000  -0.000000  -0.000000
    17  H   -0.000040  -0.000003  -0.000009  -0.000000   0.000000   0.000000
    18  C    0.397666   0.379742   0.401844   0.000027  -0.000001  -0.000000
    19  H    0.510385  -0.025428  -0.010292  -0.000000   0.000000   0.000000
    20  H   -0.025428   0.540285  -0.022269   0.000042  -0.000000  -0.000001
    21  H   -0.010292  -0.022269   0.490434  -0.000010   0.000000   0.000000
    22  C   -0.000000   0.000042  -0.000010   5.443583   0.398842   0.395909
    23  H    0.000000  -0.000000   0.000000   0.398842   0.496689  -0.028066
    24  H    0.000000  -0.000001   0.000000   0.395909  -0.028066   0.551270
    25  H   -0.000000  -0.000001   0.000000   0.380194  -0.008165  -0.022368
    26  C    0.000000  -0.000017   0.000002  -0.035534  -0.008807   0.015921
    27  H    0.000000   0.000000  -0.000000  -0.010498   0.000762  -0.001955
    28  H   -0.000000  -0.000000   0.000000   0.002523   0.000331  -0.006324
    29  H    0.000000   0.000000  -0.000000   0.002141   0.000148   0.000546
              25         26         27         28         29
     1  O    0.006339   0.000667  -0.000054  -0.000205   0.000021
     2  O    0.000000   0.000011  -0.000000  -0.000000   0.000000
     3  N    0.000018  -0.025237  -0.002276   0.000570   0.002060
     4  H   -0.000002  -0.006844   0.000517   0.000680   0.002391
     5  C   -0.000111   0.000642   0.000352   0.000152  -0.000302
     6  C   -0.000817   0.203269  -0.031372  -0.050028  -0.047376
     7  C    0.000012   0.002448  -0.000803  -0.000786   0.002880
     8  C    0.000001   0.000894  -0.000015   0.000000   0.000000
     9  C    0.000306   0.020578  -0.000590   0.000141  -0.000447
    10  H    0.000014   0.000208   0.000035   0.000013  -0.000015
    11  H   -0.000129  -0.000705  -0.000002  -0.000087   0.000076
    12  C    0.018122  -0.086173  -0.016942  -0.007357   0.022945
    13  C   -0.031427  -0.052319   0.006699  -0.001179  -0.001559
    14  C    0.000000   0.000314  -0.000080   0.000032  -0.000067
    15  H    0.000000   0.000355  -0.000008  -0.000006   0.000095
    16  H    0.000000  -0.000010   0.000003  -0.000002  -0.000001
    17  H   -0.000000  -0.000044  -0.000004   0.000001  -0.000001
    18  C   -0.000000   0.000001  -0.000000   0.000000  -0.000000
    19  H   -0.000000   0.000000   0.000000  -0.000000   0.000000
    20  H   -0.000001  -0.000017   0.000000  -0.000000   0.000000
    21  H    0.000000   0.000002  -0.000000   0.000000  -0.000000
    22  C    0.380194  -0.035534  -0.010498   0.002523   0.002141
    23  H   -0.008165  -0.008807   0.000762   0.000331   0.000148
    24  H   -0.022368   0.015921  -0.001955  -0.006324   0.000546
[...]
 64,0.00004543,-0.00007427,0.00006458,0.00000256,-0.00002693,-0.0000317
 0,0.00000181,-0.00003641,0.00000535,-0.00003198,-0.00006929,-0.0000039
 2,-0.10162582,-0.06167759,0.09589683,0.10873710,-0.00062486,0.00065287
 ,-0.00361766,-0.00040599,-0.00001121,-0.00006882,0.00077995,0.00024558
 ,-0.00007230,0.00003613,-0.00000244,-0.00003057,0.00009936,-0.00067192
 ,0.00003082,-0.00065052,0.00061613,0.00019719,-0.00031430,0.00011036,-
 0.00011762,0.00054765,0.00018358,0.00019917,-0.00037863,0.00011055,-0.
 00013930,-0.00016647,-0.00000136,-0.00005562,0.00009221,-0.00003599,-0
 .00005823,-0.00003213,-0.00044550,-0.00112676,-0.00726783,-0.01112103,
 0.01488452,0.00002867,-0.00004364,0.00001160,-0.00000738,0.00002197,-0
 .00000244,-0.00003232,0.00002415,-0.00000734,-0.00004994,0.00002505,0.
 00000571,0.00001419,-0.00004226,0.00002177,-0.00000199,-0.00001550,-0.
 00001442,0.00000597,-0.00001568,0.00000345,-0.00001146,-0.00002772,-0.
 00000560,-0.06127651,-0.10508155,0.09784963,0.06677642,0.11271506,0.00
 043117,0.00008445,-0.00196257,-0.00026191,0.00001474,-0.00007720,0.000
 68935,0.00017645,0.00014813,0.00004637,0.00000126,-0.00005595,0.000000
 32,-0.00021036,-0.00000867,-0.00056519,0.00005590,-0.00036849,-0.00034
 439,-0.00010090,0.00003659,0.00036636,0.00006844,0.00017788,-0.0000183
 7,-0.00018388,-0.00001702,-0.00016369,0.00001544,-0.00005556,0.0002125
 4,0.00002051,-0.00003541,-0.00010862,0.00101250,-0.00082467,-0.0052265
 6,-0.00718838,0.01298732,0.00001573,-0.00003979,-0.00001762,-0.0000052
 5,0.00001497,0.00000012,-0.00003121,0.00002444,-0.00000913,-0.00002802
 ,0.00001931,0.00000168,0.00001845,-0.00000613,0.00002236,0.00000273,-0
 .00000745,-0.00000915,0.00000351,-0.00001785,-0.00000158,-0.00000547,-
 0.00002792,0.00000490,0.09117982,0.09317701,-0.19087213,-0.10063231,-0
 .10456228,0.20667152,-0.00349130,-0.00559272,-0.00055176,0.00006521,0.
 00003698,0.00009968,-0.00003396,0.00021254,0.00014410,-0.00002088,-0.0
 0001740,0.00004021,0.00015551,0.00003730,-0.00009167,-0.00037850,-0.00
 024535,-0.00030036,-0.00007673,0.00003078,0.00006909,-0.00002312,-0.00
 012945,-0.00023046,0.00037614,0.00023359,-0.00018021,0.00015054,-0.000
 04469,0.00001906,-0.00026091,-0.00007239,0.00005990,-0.00069932,0.0001
 5424,0.00092135,0.01508393,-0.01384329,-0.01468174,0.00001123,0.000001
 28,-0.00002045,-0.00000175,-0.00000217,-0.00000368,-0.00000733,0.00000
 184,-0.00000649,0.00000134,0.00000579,-0.00000193,0.00000518,-0.000010
 44,0.00002107,0.00000120,0.00000382,-0.00000478,-0.00000975,0.00000846
 ,0.00001094,-0.00000831,-0.00000974,-0.00000059,-0.08849738,0.07180229
 ,0.06362506,-0.00568471,0.01087564,0.00847326,0.09257237,-0.00507841,-
 0.00399496,-0.00260639,-0.00040414,0.00002603,0.00006771,0.00037204,0.
 00006455,-0.00002522,0.00002193,0.00000270,-0.00003003,-0.00002572,-0.
 00048066,-0.00011833,-0.00042755,0.00028805,-0.00039193,-0.00023484,0.
 00021294,0.00009719,0.00052787,0.00011341,-0.00016484,-0.00004731,0.00
 014447,0.00039743,-0.00001216,0.00001933,-0.00008998,0.00001341,-0.000
 05582,0.00001686,-0.00057018,0.00015319,0.00082303,0.01176857,-0.01220
 945,-0.00822333,0.00002235,-0.00002730,0.00002356,-0.00000354,0.000015
 84,-0.00000376,-0.00001944,0.00000747,-0.00000935,-0.00003536,0.000021
 18,-0.00000476,0.00001610,-0.00001667,0.00003368,-0.00000339,-0.000009
 58,-0.00000926,0.00000234,-0.00000657,0.00000778,-0.00000177,-0.000036
 71,0.00000408,0.07048373,-0.17279365,-0.12224748,-0.00585886,0.0119914
 9,0.01047817,-0.07824703,0.18923234,-0.00196604,-0.00184277,0.00031819
 ,-0.00007980,0.00004003,0.00005227,0.00010834,0.00029003,0.00005249,-0
 .00008621,-0.00002765,-0.00001369,0.00017949,-0.00026463,-0.00010775,-
 0.00055040,-0.00046736,-0.00054077,-0.00007059,0.00022798,0.00009088,0
 .00013093,-0.00006408,-0.00011214,-0.00005908,0.00023540,0.00019961,0.
 00002022,0.00003543,-0.00006353,-0.00001745,-0.00005084,-0.00001126,-0
 .00080873,0.00006728,0.00083315,0.00832207,-0.00377803,-0.00592688,0.0
 0001760,0.00000131,-0.00000747,-0.00000611,0.00000515,-0.00000064,-0.0
 0000520,0.00000325,-0.00000815,-0.00000093,0.00000919,-0.00000193,0.00
 001295,-0.00000265,0.00002568,-0.00000035,0.00000196,-0.00000757,-0.00
 000390,-0.00000073,0.00000925,-0.00000537,-0.00001305,-0.00000031,0.06
 121166,-0.11984081,-0.15904222,0.00832096,-0.01655543,-0.01465481,-0.0
 7018967,0.13092815,0.16614327,0.00321406,0.00199084,0.00323401,-0.0003
 9199,-0.00009068,0.00002102,0.00044162,0.00021306,0.00002317,0.0000113
 4,0.00000254,-0.00002135,-0.00029259,-0.00051773,-0.00004156,0.0000776
 5,0.00000380,0.00006383,-0.00008893,-0.00028396,0.00000209,0.00032262,
 0.00035594,-0.00004022,-0.00092240,0.00060427,0.00024116,-0.00003819,-
 0.00003832,0.00001481,0.00007324,0.00008099,-0.00002069,-0.00105229,-0
 .00415288,-0.00123455,-0.02197625,0.01373905,-0.01340980,-0.00000122,-
 0.00002000,0.00000249,-0.00000705,0.00002221,-0.00000206,-0.00002106,0
 .00001263,-0.00000320,-0.00002728,0.00001651,-0.00000184,-0.00000525,-
 0.00003452,0.00000127,-0.00000537,-0.00001772,-0.00000305,0.00000154,0
 .00000464,0.00000410,0.00000335,-0.00002086,0.00000780,-0.16862916,0.1
 0592468,-0.08876624,0.01181639,-0.00916888,0.00703380,-0.00710063,0.00
 474226,-0.00482972,0.18441618,-0.00032314,0.00130637,0.00083531,0.0001
 1547,-0.00003612,0.00003044,-0.00017492,0.00008077,0.00001686,-0.00007
 400,-0.00001838,0.00001053,-0.00002489,-0.00005437,0.00003628,0.000004
 50,-0.00035345,-0.00014612,0.00012639,-0.00009190,-0.00001080,-0.00026
 868,0.00000513,-0.00008238,-0.00081756,0.00041502,0.00018408,0.0000674
 2,0.00000493,0.00001168,-0.00002224,0.00007681,0.00002377,-0.00118482,
 -0.00282880,-0.00036809,-0.01639226,0.01044882,-0.01226157,-0.00000663
 ,0.00002733,-0.00001270,-0.00000418,-0.00000219,-0.00000056,0.00001022
 ,-0.00000617,0.00000367,0.00001509,-0.00000794,-0.00000138,-0.00001333
 ,0.00000269,-0.00001193,0.00000006,0.00000071,0.00000476,-0.00000311,0
 .00001091,0.00000411,0.00000243,0.00001264,-0.00000093,0.10932649,-0.1
 3676361,0.07422650,0.01019834,-0.00837807,0.00613262,0.01190563,-0.010
 39022,0.01096988,-0.11323357,0.14692775,0.00124382,0.00023967,0.001076
 40,-0.00046571,-0.00000352,0.00009500,0.00068143,0.00029918,0.00013440
 ,0.00001374,-0.00000777,-0.00002148,-0.00007466,-0.00066988,-0.0000593
 9,-0.00018242,-0.00020340,-0.00010341,-0.00032571,0.00000410,0.0000123
 8,0.00055905,0.00018490,-0.00024164,-0.00033226,0.00052186,0.00038353,
 0.00002328,-0.00001519,0.00001307,-0.00009002,-0.00004430,-0.00005471,
 -0.00095889,-0.00202325,-0.00007282,-0.00784740,0.00816858,-0.00644678
 ,0.00002573,-0.00004284,0.00000624,-0.00000713,0.00002378,-0.00000442,
 -0.00003387,0.00001738,-0.00001358,-0.00004126,0.00003270,-0.00000021,
 0.00001142,-0.00003032,0.00005681,-0.00000170,-0.00001505,-0.00001474,
 0.00000160,-0.00000717,0.00000638,-0.00000430,-0.00004105,0.00000439,-
 0.08822041,0.07158870,-0.10991703,-0.01656707,0.01305175,-0.01113141,0
 .01451683,-0.01111090,0.01231517,0.09777882,-0.07999091,0.11373906,-0.
 00005162,0.00011132,0.00012152,0.00162446,-0.00021636,-0.00002804,-0.0
 3891382,-0.03652211,-0.00289300,0.00000808,-0.00275698,0.00096890,-0.0
 0070844,0.00118676,-0.00023932,-0.12348654,-0.04619018,-0.00608390,0.0
 0049617,0.00273439,-0.00055104,-0.00182607,-0.00018459,0.00009277,-0.0
 0152382,0.00320828,-0.00023242,0.00024032,0.00058442,0.00016922,0.0000
 1659,0.00040386,-0.00003147,0.01583118,0.00277291,0.00258068,-0.001013
 51,0.00073916,-0.00071622,-0.00046061,-0.00064868,-0.00035704,0.000112
 45,-0.00003271,0.00005212,-0.00014725,-0.00002276,0.00003182,0.0000771
 0,-0.00009136,-0.00005753,-0.00008347,-0.00003245,-0.00005344,0.000032
 02,0.00001861,0.00003007,-0.00000436,0.00005157,-0.00002693,-0.0000225
 1,0.00012234,-0.00001689,-0.00053418,0.00110104,-0.00116891,-0.0002225
 0,-0.00015890,-0.00014681,-0.00119952,0.00128080,0.00014544,0.00006748
 ,0.00025432,0.00048068,0.57761085,0.00010904,-0.00121261,-0.00020983,0
 .00284162,-0.00025083,-0.00000136,-0.00809219,0.00126708,0.00060763,0.
 00277952,0.00244294,-0.00105794,0.00106356,0.00258324,0.00015685,-0.06
 595015,-0.18712489,-0.00538995,0.00470713,-0.00196284,0.00134565,-0.00
 371053,-0.00074019,0.00006552,0.00221091,-0.00029264,0.00094281,-0.000
 45728,-0.00068830,-0.00025293,-0.00036253,-0.00056238,-0.00010930,-0.0
 1290200,-0.02322182,-0.00047280,-0.00213144,0.00257935,-0.00075870,-0.
 00004461,0.00072496,-0.00013439,-0.00002017,-0.00017648,0.00000064,0.0
 0026051,-0.00014068,0.00008819,0.00028705,-0.00020024,0.00002071,-0.00
 016789,-0.00009387,-0.00024381,-0.00003133,0.00006216,0.00006325,-0.00
 007482,0.00014921,0.00007255,-0.00002206,0.00024662,-0.00008321,0.0030
 0753,-0.00119992,0.00237547,-0.00008467,-0.00024495,0.00061721,0.00133
 523,-0.00112364,-0.00072860,-0.00009446,-0.00076126,-0.00010249,-0.040
 06474,0.51916748,0.00040129,-0.00010630,-0.00013913,0.00006843,-0.0000
 7884,0.00003103,0.00142641,-0.00035063,0.00228838,-0.00105042,-0.00101
 468,-0.00299122,-0.00046612,0.00061642,-0.00057865,-0.00289261,0.00528
 988,-0.06347438,-0.00157398,-0.00139479,0.00393874,-0.00009338,0.00025
 950,-0.00033846,-0.00065137,-0.00001116,0.00351079,-0.00028681,-0.0004
 5909,0.00009394,0.00026709,0.00073200,0.00017450,0.00368055,-0.0016459
 4,0.00341423,-0.00134043,-0.00025925,-0.00112931,0.00002726,-0.0001514
 1,0.00146598,0.00000974,0.00008558,-0.00004115,0.00037819,-0.00025669,
 0.00009058,-0.00044094,0.00029411,-0.00000499,0.00003724,-0.00005183,-
 0.00002764,0.00002480,0.00000378,0.00000871,-0.00007352,-0.00003946,0.
 00002152,0.00001818,0.00004456,0.00003818,-0.00165514,0.00085555,-0.00
 031757,0.00052852,0.00021696,-0.00083590,-0.00125528,0.00088960,-0.000
 06859,0.00014406,0.00058134,-0.00036054,-0.00195511,-0.00460086,0.5447
 2509,0.00009907,-0.00049802,-0.00007181,-0.00098710,0.00007594,0.00001
 589,0.00121268,-0.00151632,-0.00009756,0.00009708,-0.00010888,-0.00075
 505,-0.00016170,-0.00073262,0.00006232,-0.00791794,-0.00780894,-0.0152
 6557,-0.00142956,0.00018278,0.00057928,0.00119538,0.00017270,-0.000042
 24,-0.00002237,-0.00047985,0.00009439,-0.00004741,-0.00001688,0.000009
 68,0.00000327,0.00009191,0.00007355,-0.00046056,0.00168928,-0.00018105
 ,0.00035366,0.00029835,0.00018462,0.00003769,-0.00017238,0.00020276,0.
 00000678,0.00005248,-0.00002100,-0.00003624,0.00002211,-0.00000747,-0.
 00017617,0.00007434,0.00000213,0.00002882,0.00000692,0.00002468,-0.000
 00367,-0.00002963,-0.00001800,0.00001052,-0.00003670,0.00000227,0.0000
 1435,-0.00006963,0.00002476,-0.00027509,-0.00000197,-0.00003727,-0.000
 04152,0.00011630,0.00016985,-0.00055334,0.00139069,-0.00029588,0.00005
 946,-0.00017960,-0.00005130,-0.06055375,-0.01582368,-0.06308410,0.0663
 4580,0.00027617,0.00073875,0.00025706,-0.00189026,0.00002306,0.0000069
 2,0.00522468,-0.00022738,-0.00055021,-0.00015312,-0.00003179,-0.000161
 68,-0.00101932,-0.00087780,-0.00020912,-0.01247890,-0.00946694,-0.0243
 4836,-0.00229050,-0.00128812,0.00025752,0.00237969,0.00085918,-0.00011
 275,0.00011228,-0.00059174,0.00062736,-0.00001055,-0.00007803,0.000057
 69,0.00010541,0.00018092,0.00008705,-0.00100682,-0.00017906,0.00043774
 ,-0.00031670,-0.00086976,-0.00078312,0.00008873,-0.00023348,0.00044020
 ,-0.00002741,0.00012428,-0.00001910,-0.00004043,0.00002184,-0.00001995
 ,-0.00027475,0.00017502,-0.00000727,0.00006006,-0.00002887,0.00008607,
 -0.00000170,-0.00005424,-0.00002927,0.00002094,-0.00007285,-0.00001454
 ,0.00002994,-0.00012577,0.00004332,0.00040558,-0.00024022,-0.00031751,
 -0.00000222,-0.00004128,0.00000658,0.00129444,-0.00092658,0.00061800,-
 0.00010759,0.00029172,0.00018235,-0.01668224,-0.06220307,-0.06374700,0
 .02127822,0.06915591,0.00015629,-0.00011043,0.00018437,-0.00061396,0.0
 0003429,-0.00001988,0.00122059,-0.00000266,-0.00044296,0.00016414,-0.0
 0008448,-0.00010278,-0.00016953,-0.00046995,0.00040172,-0.00207504,-0.
 00451210,0.00803338,-0.00036331,0.00017015,-0.00085302,0.00077244,0.00
 017896,0.00010549,0.00005492,-0.00036715,-0.00015391,0.00001134,0.0000
 0276,-0.00001946,0.00006117,0.00003175,0.00001069,-0.00109864,0.001526
 12,-0.00084827,0.00027126,0.00010206,-0.00031299,0.00003534,-0.0000418
 9,-0.00000074,-0.00000874,0.00002208,-0.00001845,-0.00004520,0.0000469
 3,-0.00000221,-0.00005002,0.00001612,0.00001872,0.00001796,0.00000069,
 -0.00001178,-0.00000259,-0.00002139,-0.00001111,0.00001406,-0.00002891
 ,-0.00000955,0.00000833,-0.00003387,0.00000946,-0.00040768,0.00034444,
 -0.00108999,-0.00003775,-0.00015426,0.00009430,-0.00067654,0.00088420,
 0.00107684,-0.00005165,0.00023672,0.00025937,-0.05969590,-0.05993112,-
 0.27500686,0.06933684,0.06798790,0.29622426,0.00010477,-0.00024742,-0.
 00023546,-0.00079916,0.00005284,-0.00000943,-0.00171169,-0.00325442,0.
 00155663,0.00060914,-0.00021977,0.00023069,-0.00011493,-0.00081971,-0.
 00010823,-0.01488255,-0.00075277,0.00561702,-0.00051186,0.00111689,0.0
 0007140,0.00101574,0.00015140,-0.00002090,-0.00004987,-0.00037942,-0.0
 0032515,0.00001798,0.00008729,0.00001591,0.00000113,-0.00000952,0.0000
 3320,0.00023521,0.00203557,-0.00077315,0.00034463,-0.00018936,0.000951
 54,-0.00001729,-0.00019575,-0.00022657,0.00002473,0.00002863,0.0000119
 5,-0.00014335,0.00005658,-0.00002310,-0.00002959,0.00001576,-0.0000040
 1,0.00001975,0.00000731,0.00005503,-0.00000419,-0.00002297,-0.00001179
 ,0.00001695,-0.00002556,-0.00000356,0.00001178,-0.00006476,0.00002165,
 -0.00152303,0.00091554,-0.00083250,-0.00063491,0.00130281,-0.00088679,
 -0.00015063,0.00014751,-0.00005799,0.00002996,0.00029608,-0.00020164,-
 0.23841182,0.02305266,0.12653355,0.00773684,-0.00040851,-0.00448190,0.
 26126182,0.00031887,-0.00012690,-0.00003321,-0.00036564,-0.00006467,-0
 .00005972,-0.00117362,-0.00386255,0.00114024,-0.00042145,-0.00051912,0
 .00018768,-0.00061903,0.00044466,0.00027387,-0.02631932,0.00484494,0.0
 1463851,-0.00111474,-0.00050005,-0.00079156,0.00043118,0.00033008,0.00
 017690,0.00004553,-0.00006998,-0.00038441,0.00005516,0.00015430,0.0000
 2241,0.00006359,0.00007183,-0.00000249,0.00086564,0.00066177,-0.000629
 93,-0.00056535,-0.00054337,0.00006177,-0.00004664,-0.00022002,-0.00039
 657,0.00000008,0.00003458,-0.00000087,-0.00016850,0.00007880,-0.000011
 86,0.00002728,-0.00002939,0.00000578,-0.00000470,0.00000027,-0.0000295
 6,-0.00000037,-0.00002043,-0.00000250,0.00002205,-0.00001321,-0.000013
 63,0.00001404,-0.00000974,0.00000714,0.00079196,-0.00064274,0.00073901
 ,0.00113686,-0.00052062,0.00047816,0.00017731,-0.00016657,0.00014171,0
 .00011351,-0.00000572,-0.00003018,0.02441643,-0.05127762,-0.01491686,0
 .00691823,-0.00109532,-0.00357806,-0.02362073,0.05463394,-0.00033198,-
 0.00008602,0.00001721,0.00026018,-0.00004007,-0.00001085,-0.00228827,-
 0.00111314,-0.00075495,0.00033974,-0.00002188,0.00012219,0.00004807,0.
 00012109,0.00005790,-0.00294016,0.00100745,0.00287531,0.00024754,-0.00
 000806,-0.00035827,-0.00030251,-0.00001777,0.00005830,-0.00011363,0.00
 015016,0.00005731,-0.00000506,-0.00003104,-0.00002073,0.00002925,-0.00
 001137,-0.00001287,-0.00018582,0.00014890,0.00007325,0.00098772,0.0004
 3025,-0.00029783,-0.00006897,0.00000019,0.00007592,0.00000951,-0.00000
 739,0.00000094,0.00002213,-0.00001024,0.00001614,-0.00000452,-0.000006
 90,0.00000028,-0.00002051,-0.00002182,-0.00001716,-0.00000014,0.000002
 54,0.00000465,-0.00000114,0.00001085,0.00000054,-0.00000524,0.00002203
 ,-0.00001255,0.00062269,-0.00022846,0.00040167,-0.00069584,0.00015890,
 0.00065911,0.00020413,0.00015425,-0.00090580,-0.00004792,-0.00048798,0
 .00008679,0.12606922,-0.01359371,-0.12581073,0.02577389,-0.00363871,-0
 .01666219,-0.13511036,0.01710147,0.13224564,0.00020733,0.00015469,0.00
 012133,0.00013135,0.00000444,-0.00000999,0.00109147,-0.00255676,0.0005
 0493,-0.00126535,0.00003764,0.00007112,0.00012514,0.00019309,0.0003567
 1,0.00824779,-0.01510555,0.00798774,0.00033716,-0.00061510,0.00003260,
 -0.00019988,-0.00006429,0.00009347,0.00025435,-0.00048515,-0.00035867,
 -0.00001436,-0.00004831,-0.00002900,-0.00006462,-0.00013048,-0.0000222
 4,-0.00203056,-0.00177654,-0.00048364,-0.00059634,-0.00034048,-0.00014
 017,0.00003934,0.00012582,-0.00019046,-0.00002391,-0.00000525,-0.00001
 393,-0.00000144,0.00003250,0.00000425,0.00006510,-0.00004225,0.0000204
 8,-0.00002219,0.00000077,-0.00007146,-0.00000569,-0.00000538,0.0000048
 1,-0.00000278,0.00000785,0.00000255,-0.00000027,0.00002343,-0.00000531
 ,-0.00053574,0.00048361,-0.00079823,0.00039183,-0.00012717,-0.00021868
 ,-0.00022459,0.00018012,0.00056375,0.00002479,0.00040049,0.00006937,-0
 .12695288,0.10837982,-0.05672612,-0.00453498,0.00543486,-0.00234623,-0
 .01244555,0.01902236,-0.01249199,0.13800548,0.00016243,0.00004683,0.00
 000792,-0.00094311,0.00000678,0.00000553,0.00609603,0.00257259,-0.0005
 8575,-0.00172596,-0.00001611,0.00046087,-0.00020722,-0.00006216,-0.000
 08623,0.01378668,-0.02385017,0.00939043,-0.00142853,-0.00102901,-0.000
 26698,0.00108100,0.00044495,-0.00004684,0.00085716,-0.00064502,0.00002
 383,-0.00005963,-0.00018389,-0.00005947,-0.00004645,-0.00022072,0.0000
 1727,-0.00482902,-0.00185687,0.00050448,-0.00005798,0.00017077,-0.0001
 1247,0.00008054,-0.00007802,0.00010881,-0.00005684,0.00008682,-0.00000
 281,-0.00004280,0.00003286,-0.00002290,-0.00008661,0.00008518,-0.00000
 579,0.00001815,-0.00002214,0.00004660,-0.00001985,-0.00002179,-0.00001
 507,0.00001991,-0.00001465,0.00000623,0.00001244,-0.00006414,-0.000000
 51,-0.00012378,0.00013036,0.00000729,-0.00002606,0.00000391,-0.0000532
 2,0.00009750,-0.00005461,0.00006189,-0.00004574,0.00008661,0.00002326,
 0.10461785,-0.19574479,0.07921552,-0.00489513,0.00706162,-0.00224889,0
 .00094379,-0.00156712,0.00001644,-0.11317876,0.21470193,0.00013063,-0.
 00021612,-0.00001034,0.00040115,0.00000429,0.00000589,-0.00161770,-0.0
 0105658,0.00026418,0.00066141,0.00041444,0.00010387,0.00031374,0.00002
 578,0.00009390,0.00160242,-0.00330685,-0.00009513,0.00059159,0.0005768
 8,-0.00001940,-0.00049190,-0.00025535,0.00000698,-0.00007673,-0.000118
 72,0.00005979,-0.00002438,-0.00007120,0.00003371,-0.00001540,0.0000163
 3,0.00005276,-0.00026258,0.00003780,0.00021305,-0.00021008,0.00013729,
 -0.00007960,-0.00002500,0.00004775,-0.00009915,0.00001850,-0.00003766,
 0.00001800,0.00000154,-0.00001728,0.00000831,0.00004420,-0.00003281,0.
 00000581,-0.00002065,0.00000286,-0.00003051,-0.00000032,0.00000896,0.0
 0000764,-0.00000716,0.00001379,0.00000505,-0.00000429,0.00002902,-0.00
 000434,0.00005213,-0.00015107,-0.00060214,-0.00012342,-0.00004281,0.00
 013335,-0.00000906,0.00022987,0.00035670,-0.00009861,0.00006680,0.0002
 5317,-0.05648845,0.08131452,-0.08867657,-0.01662860,0.02286279,-0.0108
 5245,0.00821398,-0.01409326,0.00811077,0.06407301,-0.08638944,0.090736
 72\\-0.00000073,0.00000286,-0.00000292,-0.00000021,0.00000304,-0.00000
 466,-0.00001044,-0.00000336,-0.00000941,0.00000149,0.00000065,-0.00000
 008,0.00000377,-0.00000805,-0.00000152,0.00001366,-0.00000977,-0.00000
 403,-0.00000096,0.00000930,-0.00000480,-0.00000082,0.00000241,0.000016
 48,0.00000007,-0.00000478,0.00002106,-0.00000230,0.00000469,-0.0000025
 2,0.00000038,0.00000002,-0.00000632,-0.00000028,0.00000653,0.00000173,
 -0.00000485,-0.00000949,0.00001314,0.00000245,0.00000025,-0.00000427,0
 .00000141,-0.00000096,-0.00000934,0.00000122,-0.00000191,-0.00000483,-
 0.00000147,0.00000163,-0.00000472,0.00000053,-0.00000023,0.00000007,-0
 .00000134,-0.00000090,0.00000609,-0.00000117,-0.00000191,0.00000613,-0
 .00000255,0.00000314,0.00000661,0.00000050,0.00000417,-0.00000152,0.00
 000169,-0.00000128,0.00000204,-0.00000131,0.00000217,-0.00000023,-0.00
 000242,0.00000118,0.00000440,0.00000079,0.00000421,-0.00000271,-0.0000
 0039,0.00000004,-0.00000366,0.00000124,-0.00000176,-0.00000267,0.00000
 204,-0.00000189,-0.00000751\\\@


 OLD AGE AND TREACHERY WILL ALWAYS PREVAIL OVER YOUTH AND SKILL.
 Job cpu time:       0 days  7 hours  3 minutes 22.5 seconds.
 Elapsed time:       0 days  0 hours 13 minutes 18.5 seconds.
 File lengths (MBytes):  RWF=   1396 Int=      0 D2E=      0 Chk=     67 Scr=      1
 Normal termination of Gaussian 16 at Fri Jun 12 21:08:27 2026.
