 Entering Gaussian System, Link 0=g16
 Input=DDL-S0-TD.gjf
 Output=DDL-S0-TD.log
 Initial command:
 /data/home/wyx/g16/l1.exe "/scr/tmp/wyx/13032/Gau-1808490.inp" -scrdir="/scr/tmp/wyx/13032/"
 Entering Link 1 = /data/home/wyx/g16/l1.exe PID=   1808491.
  
 Copyright (c) 1988,1990,1992,1993,1995,1998,2003,2009,2016,
            Gaussian, Inc.  All Rights Reserved.
  
 This is part of the Gaussian(R) 16 program.  It is based on
 the Gaussian(R) 09 system (copyright 2009, Gaussian, Inc.),
 the Gaussian(R) 03 system (copyright 2003, Gaussian, Inc.),
 the Gaussian(R) 98 system (copyright 1998, Gaussian, Inc.),
 the Gaussian(R) 94 system (copyright 1995, Gaussian, Inc.),
 the Gaussian 92(TM) system (copyright 1992, Gaussian, Inc.),
 the Gaussian 90(TM) system (copyright 1990, Gaussian, Inc.),
 the Gaussian 88(TM) system (copyright 1988, Gaussian, Inc.),
 the Gaussian 86(TM) system (copyright 1986, Carnegie Mellon
 University), and the Gaussian 82(TM) system (copyright 1983,
 Carnegie Mellon University). Gaussian is a federally registered
 trademark of Gaussian, Inc.
  
 This software contains proprietary and confidential information,
 including trade secrets, belonging to Gaussian, Inc.
  
 This software is provided under written license and may be
 used, copied, transmitted, or stored only in accord with that
 written license.
  
 The following legend is applicable only to US Government
 contracts under FAR:
  
                    RESTRICTED RIGHTS LEGEND
  
 Use, reproduction and disclosure by the US Government is
 subject to restrictions as set forth in subparagraphs (a)
 and (c) of the Commercial Computer Software - Restricted
 Rights clause in FAR 52.227-19.
  
 Gaussian, Inc.
 340 Quinnipiac St., Bldg. 40, Wallingford CT 06492
  
  
 ---------------------------------------------------------------
 Warning -- This program may not be used in any manner that
 competes with the business of Gaussian, Inc. or will provide
 assistance to any competitor of Gaussian, Inc.  The licensee
 of this program is prohibited from giving any competitor of
 Gaussian, Inc. access to this program.  By using this program,
 the user acknowledges that Gaussian, Inc. is engaged in the
 business of creating and licensing software in the field of
 computational chemistry and represents and warrants to the
 licensee that it is not a competitor of Gaussian, Inc. and that
 it will not use this program in any manner prohibited above.
 ---------------------------------------------------------------
  

 Cite this work as:
 Gaussian 16, Revision A.03,
 M. J. Frisch, G. W. Trucks, H. B. Schlegel, G. E. Scuseria, 
 M. A. Robb, J. R. Cheeseman, G. Scalmani, V. Barone, 
 G. A. Petersson, H. Nakatsuji, X. Li, M. Caricato, A. V. Marenich, 
 J. Bloino, B. G. Janesko, R. Gomperts, B. Mennucci, H. P. Hratchian, 
 J. V. Ortiz, A. F. Izmaylov, J. L. Sonnenberg, D. Williams-Young, 
 F. Ding, F. Lipparini, F. Egidi, J. Goings, B. Peng, A. Petrone, 
 T. Henderson, D. Ranasinghe, V. G. Zakrzewski, J. Gao, N. Rega, 
 G. Zheng, W. Liang, M. Hada, M. Ehara, K. Toyota, R. Fukuda, 
 J. Hasegawa, M. Ishida, T. Nakajima, Y. Honda, O. Kitao, H. Nakai, 
 T. Vreven, K. Throssell, J. A. Montgomery, Jr., J. E. Peralta, 
 F. Ogliaro, M. J. Bearpark, J. J. Heyd, E. N. Brothers, K. N. Kudin, 
 V. N. Staroverov, T. A. Keith, R. Kobayashi, J. Normand, 
 K. Raghavachari, A. P. Rendell, J. C. Burant, S. S. Iyengar, 
 J. Tomasi, M. Cossi, J. M. Millam, M. Klene, C. Adamo, R. Cammi, 
 J. W. Ochterski, R. L. Martin, K. Morokuma, O. Farkas, 
 J. B. Foresman, and D. J. Fox, Gaussian, Inc., Wallingford CT, 2016.
 
 ******************************************
 Gaussian 16:  ES64L-G16RevA.03 25-Dec-2016
                20-Jan-2026 
 ******************************************
 %nprocshared=32
 Will use up to   32 processors via shared memory.
 %mem=16GB
 %oldchk=DDL-S0-opt-freq.chk
 %chk=DDL-S0-TD.chk
 Copying data from "DDL-S0-opt-freq.chk" to current chk file "DDL-S0-TD.chk"
 IOpt=  2 FromEx=T IUOpen= 4 IOptOp= 5 NList=   0 IFRang= 0 IUIn= 4 IUOut= 2.
 ----------------------------------------------------------------------
 #p CAM-B3LYP/TZVP em=gd3bj TD=NStates=6 SCRF=Solvent=TetraHydroFuran G
 eom=Check Guess=Read
 ----------------------------------------------------------------------
 1/29=2,38=1,172=1/1;
 2/12=2,40=1/2;
 3/5=19,7=101,11=9,14=-4,25=1,30=1,70=2201,72=20,74=-40,116=-2,124=41/1,2,3,8;
 4/5=1/1;
 5/5=2,38=6,53=20/2;
 8/6=1,10=1,108=6/1;
 9/41=6,42=1,70=2/14;
 6/7=2,8=2,9=2,10=2/1;
 99/5=1,9=1/99;
 Leave Link    1 at Tue Jan 20 18:22:44 2026, MaxMem=  2147483648 cpu:               1.4 elap:               0.1
 (Enter /data/home/wyx/g16/l101.exe)
 -------------------
 Title Card Required
 -------------------
 Structure from the checkpoint file:  "DDL-S0-TD.chk"
 Charge =  0 Multiplicity = 1
 Redundant internal coordinates found in file.  (old form).
 O,0,1.3883960775,9.8336717387,0.5582315683
 O,0,-4.8624938871,9.7804897797,0.5013599976
 N,0,-2.0755189786,12.9057425299,-0.0090041963
 H,0,-2.3838893731,13.8625681037,-0.063572052
 C,0,-2.6812822897,10.6400273681,0.15989486
 C,0,-0.740633194,12.6900307684,0.267654284
 C,0,-3.0525031751,11.937883029,0.0858191433
 C,0,-3.671671872,9.5713867266,0.3018715906
 C,0,-1.2214358023,10.2796174369,0.0028412219
 H,0,-0.9669008589,9.4283125823,0.6298412022
 H,0,-1.0147658763,9.9468965913,-1.0229871782
 C,0,-0.2936872008,11.4185556739,0.3638064623
 C,0,1.0656547577,11.0043009112,0.7227901156
 C,0,-4.4450907741,12.4816792995,0.1004719844
 H,0,-4.4475660774,13.5278211779,-0.2061933153
 H,0,-5.0972683201,11.9112858027,-0.5540871906
 H,0,-4.8721953269,12.4112791319,1.1005990847
 C,0,-3.1783922666,8.1491167399,0.1948310844
 H,0,-4.0337076815,7.4797541298,0.1566583063
 H,0,-2.5539959462,8.005148551,-0.6875185976
 H,0,-2.567852293,7.8954501681,1.0639636569
 C,0,2.0797773278,11.9426549791,1.3319192407
 H,0,2.5961278604,12.501596037,0.5496536412
 H,0,1.6400497254,12.6545928673,2.0255843794
 H,0,2.8191326528,11.3372009929,1.8507580616
 C,0,0.02271256,13.9704101926,0.4248596158
 H,0,0.0390753624,14.2875882736,1.4688263161
 H,0,1.043909652,13.8924786926,0.0732762301
 H,0,-0.4631558123,14.7582941741,-0.1501495175
 Recover connectivity data from disk.
 ITRead=  0  0  0  0  0  0  0  0  0  0  0  0  0  0  0  0  0  0  0  0
 ITRead=  0  0  0  0  0  0  0  0  0
 MicOpt= -1 -1 -1 -1 -1 -1 -1 -1 -1 -1 -1 -1 -1 -1 -1 -1 -1 -1 -1 -1
 MicOpt= -1 -1 -1 -1 -1 -1 -1 -1 -1
                           ----------------------------
                           !    Current Parameters    !
                           ! (Angstroms and Degrees)  !
 --------------------------                            --------------------------
 ! Name  Definition              Value                                          !
 --------------------------------------------------------------------------------
 ! R1    R(1,13)                 1.2254                                         !
 ! R2    R(2,8)                  1.2254                                         !
 ! R3    R(3,4)                  1.0068                                         !
 ! R4    R(3,6)                  1.3802                                         !
 ! R5    R(3,7)                  1.3785                                         !
 ! R6    R(5,7)                  1.3519                                         !
 ! R7    R(5,8)                  1.4639                                         !
 ! R8    R(5,9)                  1.5119                                         !
 ! R9    R(6,12)                 1.3512                                         !
 ! R10   R(6,26)                 1.4989                                         !
 ! R11   R(7,14)                 1.4951                                         !
 ! R12   R(8,18)                 1.5092                                         !
 ! R13   R(9,10)                 1.0875                                         !
 ! R14   R(9,11)                 1.0981                                         !
 ! R15   R(9,12)                 1.5127                                         !
 ! R16   R(12,13)                1.4657                                         !
 ! R17   R(13,22)                1.51                                           !
 ! R18   R(14,15)                1.0902                                         !
 ! R19   R(14,16)                1.0859                                         !
 ! R20   R(14,17)                1.0898                                         !
 ! R21   R(18,19)                1.0868                                         !
 ! R22   R(18,20)                1.0905                                         !
 ! R23   R(18,21)                1.092                                          !
 ! R24   R(22,23)                1.0913                                         !
 ! R25   R(22,24)                1.0869                                         !
 ! R26   R(22,25)                1.0874                                         !
 ! R27   R(26,27)                1.0912                                         !
 ! R28   R(26,28)                1.0828                                         !
 ! R29   R(26,29)                1.0897                                         !
 ! A1    A(4,3,6)              117.1059                                         !
 ! A2    A(4,3,7)              116.9961                                         !
 ! A3    A(6,3,7)              124.1899                                         !
 ! A4    A(7,5,8)              121.355                                          !
 ! A5    A(7,5,9)              119.2289                                         !
 ! A6    A(8,5,9)              119.2957                                         !
 ! A7    A(3,6,12)             118.7675                                         !
 ! A8    A(3,6,26)             112.3373                                         !
 ! A9    A(12,6,26)            128.8951                                         !
 ! A10   A(3,7,5)              118.894                                          !
 ! A11   A(3,7,14)             113.9193                                         !
 ! A12   A(5,7,14)             127.186                                          !
 ! A13   A(2,8,5)              123.2762                                         !
 ! A14   A(2,8,18)             119.3402                                         !
 ! A15   A(5,8,18)             117.3836                                         !
 ! A16   A(5,9,10)             110.6541                                         !
 ! A17   A(5,9,11)             110.5497                                         !
 ! A18   A(5,9,12)             112.8262                                         !
 ! A19   A(10,9,11)            104.9145                                         !
 ! A20   A(10,9,12)            107.9551                                         !
 ! A21   A(11,9,12)            109.6113                                         !
 ! A22   A(6,12,9)             119.2528                                         !
 ! A23   A(6,12,13)            126.1692                                         !
 ! A24   A(9,12,13)            114.4848                                         !
 ! A25   A(1,13,12)            118.775                                          !
 ! A26   A(1,13,22)            118.0959                                         !
 ! A27   A(12,13,22)           123.0962                                         !
 ! A28   A(7,14,15)            110.3893                                         !
 ! A29   A(7,14,16)            111.2515                                         !
 ! A30   A(7,14,17)            110.521                                          !
 ! A31   A(15,14,16)           109.4595                                         !
 ! A32   A(15,14,17)           108.6182                                         !
 ! A33   A(16,14,17)           106.492                                          !
 ! A34   A(8,18,19)            109.008                                          !
 ! A35   A(8,18,20)            111.6516                                         !
 ! A36   A(8,18,21)            110.1944                                         !
 ! A37   A(19,18,20)           109.9321                                         !
 ! A38   A(19,18,21)           108.9598                                         !
 ! A39   A(20,18,21)           107.0493                                         !
 ! A40   A(13,22,23)           110.2974                                         !
 ! A41   A(13,22,24)           113.128                                          !
 ! A42   A(13,22,25)           107.6454                                         !
 ! A43   A(23,22,24)           108.2646                                         !
 ! A44   A(23,22,25)           107.7874                                         !
 ! A45   A(24,22,25)           109.5892                                         !
 ! A46   A(6,26,27)            110.8708                                         !
 ! A47   A(6,26,28)            112.6279                                         !
 ! A48   A(6,26,29)            109.5846                                         !
 ! A49   A(27,26,28)           108.5063                                         !
 ! A50   A(27,26,29)           107.539                                          !
 ! A51   A(28,26,29)           107.5295                                         !
 ! D1    D(4,3,6,12)           179.2483                                         !
 ! D2    D(4,3,6,26)            -0.6253                                         !
 ! D3    D(7,3,6,12)            14.6251                                         !
 ! D4    D(7,3,6,26)          -165.2486                                         !
 ! D5    D(4,3,7,5)            179.933                                          !
 ! D6    D(4,3,7,14)            -0.3445                                         !
 ! D7    D(6,3,7,5)            -15.4284                                         !
 ! D8    D(6,3,7,14)           164.2941                                         !
 ! D9    D(8,5,7,3)            178.1682                                         !
 ! D10   D(8,5,7,14)            -1.5134                                         !
 ! D11   D(9,5,7,3)             -5.8481                                         !
 ! D12   D(9,5,7,14)           174.4703                                         !
 ! D13   D(7,5,8,2)             -7.8593                                         !
 ! D14   D(7,5,8,18)           172.1965                                         !
 ! D15   D(9,5,8,2)            176.1596                                         !
 ! D16   D(9,5,8,18)            -3.7846                                         !
 ! D17   D(7,5,9,10)           145.7681                                         !
 ! D18   D(7,5,9,11)           -98.4429                                         !
 ! D19   D(7,5,9,12)            24.6971                                         !
 ! D20   D(8,5,9,10)           -38.1645                                         !
 ! D21   D(8,5,9,11)            77.6245                                         !
 ! D22   D(8,5,9,12)          -159.2354                                         !
 ! D23   D(3,6,12,9)             7.3526                                         !
 ! D24   D(3,6,12,13)         -176.3612                                         !
 ! D25   D(26,6,12,9)         -172.7975                                         !
 ! D26   D(26,6,12,13)           3.4887                                         !
 ! D27   D(3,6,26,27)           91.687                                          !
 ! D28   D(3,6,26,28)         -146.513                                          !
 ! D29   D(3,6,26,29)          -26.8661                                         !
 ! D30   D(12,6,26,27)         -88.1708                                         !
 ! D31   D(12,6,26,28)          33.6293                                         !
 ! D32   D(12,6,26,29)         153.2762                                         !
 ! D33   D(3,7,14,15)           13.6176                                         !
 ! D34   D(3,7,14,16)          135.3458                                         !
 ! D35   D(3,7,14,17)         -106.5678                                         !
 ! D36   D(5,7,14,15)         -166.6874                                         !
 ! D37   D(5,7,14,16)          -44.9592                                         !
 ! D38   D(5,7,14,17)           73.1272                                         !
 ! D39   D(2,8,18,19)            9.1984                                         !
 ! D40   D(2,8,18,20)          130.8456                                         !
 ! D41   D(2,8,18,21)         -110.3301                                         !
 ! D42   D(5,8,18,19)         -170.8551                                         !
 ! D43   D(5,8,18,20)          -49.2079                                         !
 ! D44   D(5,8,18,21)           69.6164                                         !
 ! D45   D(5,9,12,6)           -25.483                                          !
 ! D46   D(5,9,12,13)          157.8108                                         !
 ! D47   D(10,9,12,6)         -148.077                                          !
 ! D48   D(10,9,12,13)          35.2168                                         !
 ! D49   D(11,9,12,6)           98.1773                                         !
 ! D50   D(11,9,12,13)         -78.5289                                         !
 ! D51   D(6,12,13,1)         -168.1171                                         !
 ! D52   D(6,12,13,22)          14.0106                                         !
 ! D53   D(9,12,13,1)            8.3227                                         !
 ! D54   D(9,12,13,22)        -169.5495                                         !
 ! D55   D(1,13,22,23)          97.2933                                         !
 ! D56   D(1,13,22,24)        -141.2852                                         !
 ! D57   D(1,13,22,25)         -20.0578                                         !
 ! D58   D(12,13,22,23)        -84.8209                                         !
 ! D59   D(12,13,22,24)         36.6007                                         !
 ! D60   D(12,13,22,25)        157.8281                                         !
 --------------------------------------------------------------------------------
 NAtoms=     29 NQM=       29 NQMF=       0 NMMI=      0 NMMIF=      0
                NMic=       0 NMicF=      0.
                    Isotopes and Nuclear Properties:
 (Nuclear quadrupole moments (NQMom) in fm**2, nuclear magnetic moments (NMagM)
  in nuclear magnetons)

  Atom         1           2           3           4           5           6           7           8           9          10
 IAtWgt=          16          16          14           1          12          12          12          12          12           1
 AtmWgt=  15.9949146  15.9949146  14.0030740   1.0078250  12.0000000  12.0000000  12.0000000  12.0000000  12.0000000   1.0078250
 NucSpn=           0           0           2           1           0           0           0           0           0           1
 AtZEff=   5.6000000   5.6000000   4.5500000   1.0000000   3.6000000   3.6000000   3.6000000   3.6000000   3.6000000   1.0000000
 NQMom=    0.0000000   0.0000000   2.0440000   0.0000000   0.0000000   0.0000000   0.0000000   0.0000000   0.0000000   0.0000000
 NMagM=    0.0000000   0.0000000   0.4037610   2.7928460   0.0000000   0.0000000   0.0000000   0.0000000   0.0000000   2.7928460
 AtZNuc=   8.0000000   8.0000000   7.0000000   1.0000000   6.0000000   6.0000000   6.0000000   6.0000000   6.0000000   1.0000000

  Atom        11          12          13          14          15          16          17          18          19          20
 IAtWgt=           1          12          12          12           1           1           1          12           1           1
 AtmWgt=   1.0078250  12.0000000  12.0000000  12.0000000   1.0078250   1.0078250   1.0078250  12.0000000   1.0078250   1.0078250
 NucSpn=           1           0           0           0           1           1           1           0           1           1
 AtZEff=   1.0000000   3.6000000   3.6000000   3.6000000   1.0000000   1.0000000   1.0000000   3.6000000   1.0000000   1.0000000
 NQMom=    0.0000000   0.0000000   0.0000000   0.0000000   0.0000000   0.0000000   0.0000000   0.0000000   0.0000000   0.0000000
 NMagM=    2.7928460   0.0000000   0.0000000   0.0000000   2.7928460   2.7928460   2.7928460   0.0000000   2.7928460   2.7928460
 AtZNuc=   1.0000000   6.0000000   6.0000000   6.0000000   1.0000000   1.0000000   1.0000000   6.0000000   1.0000000   1.0000000

  Atom        21          22          23          24          25          26          27          28          29
 IAtWgt=           1          12           1           1           1          12           1           1           1
 AtmWgt=   1.0078250  12.0000000   1.0078250   1.0078250   1.0078250  12.0000000   1.0078250   1.0078250   1.0078250
 NucSpn=           1           0           1           1           1           0           1           1           1
 AtZEff=   1.0000000   3.6000000   1.0000000   1.0000000   1.0000000   3.6000000   1.0000000   1.0000000   1.0000000
 NQMom=    0.0000000   0.0000000   0.0000000   0.0000000   0.0000000   0.0000000   0.0000000   0.0000000   0.0000000
 NMagM=    2.7928460   0.0000000   2.7928460   2.7928460   2.7928460   0.0000000   2.7928460   2.7928460   2.7928460
 AtZNuc=   1.0000000   6.0000000   1.0000000   1.0000000   1.0000000   6.0000000   1.0000000   1.0000000   1.0000000
 Leave Link  101 at Tue Jan 20 18:22:45 2026, MaxMem=  2147483648 cpu:               6.5 elap:               0.2
 (Enter /data/home/wyx/g16/l202.exe)
                          Input orientation:                          
 ---------------------------------------------------------------------
 Center     Atomic      Atomic             Coordinates (Angstroms)
 Number     Number       Type             X           Y           Z
 ---------------------------------------------------------------------
      1          8           0        1.388396    9.833672    0.558232
      2          8           0       -4.862494    9.780490    0.501360
      3          7           0       -2.075519   12.905743   -0.009004
      4          1           0       -2.383889   13.862568   -0.063572
      5          6           0       -2.681282   10.640027    0.159895
      6          6           0       -0.740633   12.690031    0.267654
      7          6           0       -3.052503   11.937883    0.085819
      8          6           0       -3.671672    9.571387    0.301872
      9          6           0       -1.221436   10.279617    0.002841
     10          1           0       -0.966901    9.428313    0.629841
     11          1           0       -1.014766    9.946897   -1.022987
     12          6           0       -0.293687   11.418556    0.363806
     13          6           0        1.065655   11.004301    0.722790
     14          6           0       -4.445091   12.481679    0.100472
     15          1           0       -4.447566   13.527821   -0.206193
     16          1           0       -5.097268   11.911286   -0.554087
     17          1           0       -4.872195   12.411279    1.100599
     18          6           0       -3.178392    8.149117    0.194831
     19          1           0       -4.033708    7.479754    0.156658
     20          1           0       -2.553996    8.005149   -0.687519
     21          1           0       -2.567852    7.895450    1.063964
     22          6           0        2.079777   11.942655    1.331919
     23          1           0        2.596128   12.501596    0.549654
     24          1           0        1.640050   12.654593    2.025584
     25          1           0        2.819133   11.337201    1.850758
     26          6           0        0.022713   13.970410    0.424860
     27          1           0        0.039075   14.287588    1.468826
     28          1           0        1.043910   13.892479    0.073276
     29          1           0       -0.463156   14.758294   -0.150150
 ---------------------------------------------------------------------
                    Distance matrix (angstroms):
                    1          2          3          4          5
     1  O    0.000000
     2  O    6.251375   0.000000
     3  N    4.664556   4.218401   0.000000
     4  H    5.554168   4.808949   1.006770   0.000000
     5  C    4.167873   2.369196   2.351370   3.243940   0.000000
     6  C    3.574351   5.050721   1.380214   2.045690   2.824933
     7  C    4.936848   2.846592   1.378493   2.042982   1.351932
     8  C    5.073342   1.225388   3.709754   4.495127   1.463906
     9  C    2.705282   3.708767   2.761545   3.767392   1.511857
    10  H    2.390997   3.913589   3.705358   4.706517   2.151327
    11  H    2.878934   4.142021   3.302746   4.257635   2.157989
    12  C    2.319281   4.855530   2.350667   3.244194   2.519583
    13  C    1.225404   6.057202   3.744059   4.548342   3.806453
    14  C    6.422699   2.762492   2.409706   2.486426   2.550732
    15  H    6.949068   3.836051   2.460177   2.095509   3.404869
    16  H    6.900549   2.389431   3.227542   3.377948   2.821853
    17  H    6.792145   2.698191   3.049117   3.106960   2.970245
    18  C    4.881121   2.364643   4.887061   5.774213   2.540271
    19  H    5.924643   2.469634   5.770901   6.596265   3.437498
    20  H    4.520824   3.145542   4.970427   5.893014   2.770722
    21  H    4.434452   3.022462   5.147493   6.075498   2.891870
    22  C    2.350407   7.318464   4.471253   5.055471   5.073280
    23  H    2.928568   7.939634   4.722258   5.198929   5.609671
    24  H    3.189679   7.270956   4.243593   4.692107   5.119881
    25  H    2.445042   7.953088   5.465954   6.092091   5.796519
    26  C    4.358381   6.436344   2.392557   2.458033   4.298051
    27  H    4.742069   6.728693   2.926600   2.898214   4.734802
    28  H    4.102166   7.209529   3.272805   3.430660   4.946008
    29  H    5.308668   6.675116   2.459997   2.121094   4.687892
                    6          7          8          9         10
     6  C    0.000000
     7  C    2.437936   0.000000
     8  C    4.279965   2.455678   0.000000
     9  C    2.472122   2.471748   2.568008   0.000000
    10  H    3.289556   3.308117   2.728337   1.087491   0.000000
    11  H    3.043959   3.057099   2.992559   1.098062   1.732935
    12  C    1.351168   2.821000   3.850539   1.512678   2.117796
    13  C    2.512272   4.270425   4.967160   2.504850   2.573647
    14  C    3.714077   1.495068   3.018036   3.905196   4.658442
    15  H    3.829853   2.135269   4.063682   4.582842   5.442422
    16  H    4.501330   2.142721   2.870561   4.242003   4.962537
    17  H    4.223897   2.136624   3.184998   4.367734   4.936702
    18  C    5.154403   3.792424   1.509183   2.899236   2.591577
    19  H    6.164709   4.565380   2.127694   3.971368   3.664162
    20  H    5.113586   4.038931   2.163607   2.724981   2.505934
    21  H    5.192383   4.187233   2.146617   2.936507   2.258578
    22  C    3.105792   5.281391   6.305797   3.928123   4.012117
    23  H    3.353954   5.695608   6.923354   4.450841   4.706025
    24  H    2.959599   5.128003   6.379007   4.233214   4.376434
    25  H    4.124112   6.160514   6.902731   4.567217   4.412317
    26  C    1.498927   3.701765   5.745869   3.917647   4.653171
    27  H    2.145449   4.122097   6.113427   4.449925   5.032737
    28  H    2.160615   4.538854   6.400063   4.264917   4.927667
    29  H    2.128208   3.836029   6.115792   4.544991   5.410254
                   11         12         13         14         15
    11  H    0.000000
    12  C    2.146842   0.000000
    13  C    2.914445   1.465704   0.000000
    14  C    4.410716   4.293452   5.739185   0.000000
    15  H    5.027354   4.693465   6.134066   1.090166   0.000000
    16  H    4.554725   4.915252   6.358825   1.085878   1.776606
    17  H    5.046044   4.742478   6.113951   1.089784   1.770503
    18  C    3.065350   4.363405   5.142252   4.514923   5.540946
    19  H    4.073373   5.435515   6.224663   5.019128   6.073060
    20  H    2.500431   4.226775   4.907724   4.923058   5.858088
    21  H    3.312986   4.251390   4.794135   5.048350   6.072086
    22  C    4.370908   2.616344   1.509964   6.661900   6.890918
    23  H    4.694491   3.091690   2.148073   7.055560   7.158077
    24  H    4.865537   2.833484   2.179602   6.384739   6.542356
    25  H    4.989001   3.450694   2.111355   7.559251   7.863509
    26  C    4.400146   2.572119   3.158211   4.720468   4.536243
    27  H    5.114814   3.092434   3.520002   5.024087   4.849009
    28  H    4.583400   2.827343   2.960391   5.667470   5.510661
    29  H    4.920942   3.383301   4.146294   4.593647   4.170459
                   16         17         18         19         20
    16  H    0.000000
    17  H    1.743169   0.000000
    18  C    4.289158   4.674977   0.000000
    19  H    4.612461   5.090582   1.086769   0.000000
    20  H    4.663040   5.290123   1.090476   1.782757   0.000000
    21  H    5.014277   5.069916   1.092015   1.773341   1.754969
    22  C    7.420781   6.971588   6.582724   7.659858   6.407335
    23  H    7.794553   7.489162   7.239824   8.326347   6.947835
    24  H    7.252494   6.582107   6.846047   7.903377   6.824095
    25  H    8.293507   7.802109   6.991157   8.044333   6.812924
    26  C    5.604689   5.181471   6.647364   7.658661   6.592508
    27  H    6.010076   5.270361   7.046701   8.040893   7.130420
    28  H    6.483269   6.184630   7.129433   8.179987   6.941498
    29  H    5.453771   5.149027   7.153513   8.112960   7.089806
                   21         22         23         24         25
    21  H    0.000000
    22  C    6.168641   0.000000
    23  H    6.938861   1.091317   0.000000
    24  H    6.424998   1.086916   1.765181   0.000000
    25  H    6.440831   1.087389   1.760233   1.776604   0.000000
    26  C    6.635105   3.027551   2.965713   2.628588   4.097187
    27  H    6.915158   3.111578   3.251640   2.353672   4.071778
    28  H    7.070406   2.541460   2.137960   2.387310   3.583337
    29  H    7.280278   4.073188   3.865440   3.685492   5.145962
                   26         27         28         29
    26  C    0.000000
    27  H    1.091209   0.000000
    28  H    1.082833   1.764473   0.000000
    29  H    1.089709   1.759228   1.752370   0.000000
 Stoichiometry    C11H15NO2
 Framework group  C1[X(C11H15NO2)]
 Deg. of freedom    81
 Full point group                 C1      NOp   1
 RotChk:  IX=0 Diff= 8.93D-16
 Largest Abelian subgroup         C1      NOp   1
 Largest concise Abelian subgroup C1      NOp   1
                         Standard orientation:                         
 ---------------------------------------------------------------------
 Center     Atomic      Atomic             Coordinates (Angstroms)
 Number     Number       Type             X           Y           Z
 ---------------------------------------------------------------------
      1          8           0        2.288218   -2.276543   -0.181993
      2          8           0       -3.587161   -0.244219    0.473193
      3          7           0        0.026432    1.802057   -0.268162
      4          1           0        0.055309    2.808391   -0.261635
      5          6           0       -1.288722   -0.139131   -0.091803
      6          6           0        1.230534    1.137598   -0.151447
      7          6           0       -1.205503    1.210234   -0.088376
      8          6           0       -2.562577   -0.824320    0.133650
      9          6           0       -0.059177   -0.953762   -0.423932
     10          1           0       -0.046476   -1.879248    0.146989
     11          1           0       -0.079003   -1.270431   -1.475153
     12          6           0        1.229284   -0.213528   -0.140885
     13          6           0        2.397378   -1.078165    0.049499
     14          6           0       -2.324210    2.184095    0.099555
     15          1           0       -2.003644    3.188751   -0.176791
     16          1           0       -3.191714    1.905829   -0.491324
     17          1           0       -2.649333    2.196388    1.139638
     18          6           0       -2.591353   -2.319843   -0.066891
     19          1           0       -3.621737   -2.662814   -0.025097
     20          1           0       -2.142288   -2.606932   -1.018237
     21          1           0       -2.019827   -2.816749    0.719836
     22          6           0        3.723436   -0.571150    0.563793
     23          1           0        4.318444   -0.167264   -0.257069
     24          1           0        3.620364    0.200935    1.321848
     25          1           0        4.262333   -1.419665    0.978553
     26          6           0        2.392762    2.078530   -0.048227
     27          1           0        2.617923    2.305253    0.995150
     28          1           0        3.287845    1.687921   -0.515965
     29          1           0        2.147210    3.017971   -0.542818
 ---------------------------------------------------------------------
 Rotational constants (GHZ):           1.0782823           0.4906712           0.3474065
 Leave Link  202 at Tue Jan 20 18:22:45 2026, MaxMem=  2147483648 cpu:               0.1 elap:               0.0
 (Enter /data/home/wyx/g16/l301.exe)
 Standard basis: TZVP (5D, 7F)
 Ernie: Thresh=  0.10000D-02 Tol=  0.10000D-05 Strict=F.
 There are   370 symmetry adapted cartesian basis functions of A   symmetry.
 There are   356 symmetry adapted basis functions of A   symmetry.
   356 basis functions,   610 primitive gaussians,   370 cartesian basis functions
    52 alpha electrons       52 beta electrons
       nuclear repulsion energy       900.7284104991 Hartrees.
 IExCor=20419 DFT=T Ex+Corr=CAM-B3LYP ExCW=0 ScaHFX=  1.000000
 ScaDFX=  1.000000  1.000000  1.000000  0.810000 ScalE2=  1.000000  1.000000
 IRadAn=      5 IRanWt=     -1 IRanGd=            0 ICorTp=0 IEmpDi=141
 HFx  wShort=  0.000000 wLong=  0.330000 cFull=  0.190000 cShort=  0.000000 cLong=  0.460000
 DFx  wShort=  0.000000 wLong=  0.330000 cFull=  0.190000 cShort=  0.000000 cLong=  0.460000
 NAtoms=   29 NActive=   29 NUniq=   29 SFac= 1.00D+00 NAtFMM=   60 NAOKFM=F Big=F
 Integral buffers will be    131072 words long.
 Raffenetti 1 integral format.
 Two-electron integral symmetry is turned on.
 R6Disp:  Grimme-D3(BJ) Dispersion energy=       -0.0262127042 Hartrees.
 Nuclear repulsion after empirical dispersion term =      900.7021977949 Hartrees.
 ------------------------------------------------------------------------------
 Polarizable Continuum Model (PCM)
 =================================
 Model                : PCM.
 Atomic radii         : UFF (Universal Force Field).
 Polarization charges : Total charges.
 Charge compensation  : None.
 Solution method      : On-the-fly selection.
 Cavity type          : Scaled VdW (van der Waals Surface) (Alpha=1.100).
 Cavity algorithm     : GePol (No added spheres)
                        Default sphere list used, NSphG=   29.
                        Lebedev-Laikov grids with approx.  5.0 points / Ang**2.
                        Smoothing algorithm: York/Karplus (Gamma=1.0000).
                        Polarization charges: spherical gaussians, with
                                              point-specific exponents (IZeta= 3).
                        Self-potential: point-specific (ISelfS= 7).
                        Self-field    : sphere-specific E.n sum rule (ISelfD= 2).
 Solvent              : TetraHydroFuran, Eps=   7.425700 Eps(inf)=   1.974025
 ------------------------------------------------------------------------------
 GePol: Number of generator spheres                  =      29
 GePol: Total number of spheres                      =      29
 GePol: Number of exposed spheres                    =      29 (100.00%)
 GePol: Number of points                             =    2087
 GePol: Average weight of points                     =       0.13
 GePol: Minimum weight of points                     =   0.28D-10
 GePol: Maximum weight of points                     =    0.20577
 GePol: Number of points with low weight             =     143
 GePol: Fraction of low-weight points (<1% of avg)   =       6.85%
 GePol: Cavity surface area                          =    268.837 Ang**2
 GePol: Cavity volume                                =    286.879 Ang**3
 Leave Link  301 at Tue Jan 20 18:22:46 2026, MaxMem=  2147483648 cpu:               1.2 elap:               0.0
 (Enter /data/home/wyx/g16/l302.exe)
 NPDir=0 NMtPBC=     1 NCelOv=     1 NCel=       1 NClECP=     1 NCelD=      1
         NCelK=      1 NCelE2=     1 NClLst=     1 CellRange=     0.0.
 One-electron integrals computed using PRISM.
 One-electron integral symmetry used in STVInt
 NBasis=   356 RedAO= T EigKep=  4.74D-05  NBF=   356
 NBsUse=   356 1.00D-06 EigRej= -1.00D+00 NBFU=   356
 Precomputing XC quadrature grid using
 IXCGrd= 4 IRadAn=           5 IRanWt=          -1 IRanGd=           0 AccXCQ= 0.00D+00.
 Generated NRdTot=       0 NPtTot=           0 NUsed=           0 NTot=          32
 NSgBfM=   366   366   366   366   366 MxSgAt=    29 MxSgA2=    29.
 Leave Link  302 at Tue Jan 20 18:22:46 2026, MaxMem=  2147483648 cpu:               6.4 elap:               0.2
 (Enter /data/home/wyx/g16/l303.exe)
 DipDrv:  MaxL=1.
 Leave Link  303 at Tue Jan 20 18:22:46 2026, MaxMem=  2147483648 cpu:               1.1 elap:               0.0
 (Enter /data/home/wyx/g16/l308.exe)
 Leave Link  308 at Tue Jan 20 18:22:47 2026, MaxMem=  2147483648 cpu:               1.4 elap:               0.1
 (Enter /data/home/wyx/g16/l401.exe)
 Initial guess from the checkpoint file:  "DDL-S0-TD.chk"
 B after Tr=     0.000000    0.000000   -0.000000
         Rot=    1.000000   -0.000000   -0.000000   -0.000000 Ang=   0.00 deg.
 Guess basis will be translated and rotated to current coordinates.
 JPrj=2 DoOrth=T DoCkMO=T.
 Leave Link  401 at Tue Jan 20 18:22:47 2026, MaxMem=  2147483648 cpu:               4.5 elap:               0.2
 (Enter /data/home/wyx/g16/l502.exe)
 Integral symmetry usage will be decided dynamically.
 Closed shell SCF:
 Using DIIS extrapolation, IDIIS=  1040.
 NGot=  2147483648 LenX=  2147194175 LenY=  2147056834
 Requested convergence on RMS density matrix=1.00D-08 within 128 cycles.
 Requested convergence on MAX density matrix=1.00D-06.
 Requested convergence on             energy=1.00D-06.
 No special actions if energy rises.
 Fock matrices will be formed incrementally for  20 cycles.

 Cycle   1  Pass 1  IDiag  1:
 FoFJK:  IHMeth= 1 ICntrl=       0 DoSepK=T KAlg= 0 I1Cent=           0 FoldK=F
 IRaf=         1 NMat=       1 IRICut=       1 DoRegI=T DoRafI=F ISym2E= 0 IDoP0=0 IntGTp=1.
 FoFCou: FMM=F IPFlag=           0 FMFlag=      100000 FMFlg1=           0
         NFxFlg=           0 DoJE=T BraDBF=F KetDBF=F FulRan=T
         wScrn=  0.000000 ICntrl=       500 IOpCl=  0 I1Cent=           0 NGrid=           0
         NMat0=    1 NMatS0=      1 NMatT0=    0 NMatD0=    1 NMtDS0=    0 NMtDT0=    0
 Symmetry not used in FoFCou.
 Inv3:  Mode=1 IEnd=    13066707.
 Iteration    1 A*A^-1 deviation from unit magnitude is 2.89D-15 for    938.
 Iteration    1 A*A^-1 deviation from orthogonality  is 1.97D-15 for   1377     43.
 Iteration    1 A^-1*A deviation from unit magnitude is 3.11D-15 for   1359.
 Iteration    1 A^-1*A deviation from orthogonality  is 2.16D-15 for   1125    492.
 E= -633.328952766783    
 DIIS: error= 8.42D-09 at cycle   1 NSaved=   1.
 NSaved= 1 IEnMin= 1 EnMin= -633.328952766783     IErMin= 1 ErrMin= 8.42D-09
 ErrMax= 8.42D-09  0.00D+00 EMaxC= 1.00D-01 BMatC= 3.58D-14 BMatP= 3.58D-14
 IDIUse=1 WtCom= 1.00D+00 WtEn= 0.00D+00
 Coeff-Com:  0.100D+01
 Coeff:      0.100D+01
 Gap=     0.241 Goal=   None    Shift=    0.000
 RMSDP=1.73D-09 MaxDP=1.41D-07              OVMax= 1.11D-07

 Error on total polarization charges =  0.01420
 SCF Done:  E(RCAM-B3LYP) =  -633.328952767     A.U. after    1 cycles
            NFock=  1  Conv=0.17D-08     -V/T= 2.0042
 KE= 6.307042836999D+02 PE=-3.277490927932D+03 EE= 1.112755493670D+03
 Leave Link  502 at Tue Jan 20 18:22:51 2026, MaxMem=  2147483648 cpu:             121.9 elap:               4.2
 (Enter /data/home/wyx/g16/l801.exe)
 DoSCS=F DFT=T ScalE2(SS,OS)=  1.000000  1.000000
 ExpMin= 9.52D-02 ExpMax= 2.70D+04 ExpMxC= 9.22D+02 IAcc=3 IRadAn=         5 AccDes= 0.00D+00
 HarFok:  IExCor=  205 AccDes= 0.00D+00 IRadAn=         5 IDoV=-2 UseB2=F ITyADJ=14
 ICtDFT= 12500011 ScaDFX=  1.000000  1.000000  1.000000  1.000000
 Largest valence mixing into a core orbital is  5.65D-05
 Largest core mixing into a valence orbital is  1.21D-05
 Range of M.O.s used for correlation:    15   356
 NBasis=   356 NAE=    52 NBE=    52 NFC=    14 NFV=     0
 NROrb=    342 NOA=    38 NOB=    38 NVA=   304 NVB=   304

 **** Warning!!: The largest alpha MO coefficient is  0.49905454D+02

 Leave Link  801 at Tue Jan 20 18:22:51 2026, MaxMem=  2147483648 cpu:               1.6 elap:               0.1
 (Enter /data/home/wyx/g16/l914.exe)
 RHF ground state
 Two-electron integrals replicated using symmetry.
 MDV=  2147483648 DFT=T DoStab=F Mixed=T DoRPA=T DoScal=F NonHer=T
 NEqPCM:  Using non-equilibrium solvation (IEInf=1, Eps=   7.4257, EpsInf=   1.9740)
 Inv3:  Mode=1 IEnd=    13066707.
 Iteration    1 A*A^-1 deviation from unit magnitude is 3.22D-15 for    246.
 Iteration    1 A*A^-1 deviation from orthogonality  is 2.11D-15 for   1905     93.
 Iteration    1 A^-1*A deviation from unit magnitude is 3.33D-15 for    495.
 Iteration    1 A^-1*A deviation from orthogonality  is 2.11D-15 for   1857   1481.
 Making orbital integer symmetry assigments:
 Orbital symmetries:
       Occupied  (A) (A) (A) (A) (A) (A) (A) (A) (A) (A) (A) (A)
                 (A) (A) (A) (A) (A) (A) (A) (A) (A) (A) (A) (A)
                 (A) (A) (A) (A) (A) (A) (A) (A) (A) (A) (A) (A)
                 (A) (A) (A) (A) (A) (A) (A) (A) (A) (A) (A) (A)
                 (A) (A) (A) (A)
       Virtual   (A) (A) (A) (A) (A) (A) (A) (A) (A) (A) (A) (A)
                 (A) (A) (A) (A) (A) (A) (A) (A) (A) (A) (A) (A)
                 (A) (A) (A) (A) (A) (A) (A) (A) (A) (A) (A) (A)
                 (A) (A) (A) (A) (A) (A) (A) (A) (A) (A) (A) (A)
                 (A) (A) (A) (A) (A) (A) (A) (A) (A) (A) (A) (A)
                 (A) (A) (A) (A) (A) (A) (A) (A) (A) (A) (A) (A)
                 (A) (A) (A) (A) (A) (A) (A) (A) (A) (A) (A) (A)
                 (A) (A) (A) (A) (A) (A) (A) (A) (A) (A) (A) (A)
                 (A) (A) (A) (A) (A) (A) (A) (A) (A) (A) (A) (A)
                 (A) (A) (A) (A) (A) (A) (A) (A) (A) (A) (A) (A)
                 (A) (A) (A) (A) (A) (A) (A) (A) (A) (A) (A) (A)
                 (A) (A) (A) (A) (A) (A) (A) (A) (A) (A) (A) (A)
                 (A) (A) (A) (A) (A) (A) (A) (A) (A) (A) (A) (A)
                 (A) (A) (A) (A) (A) (A) (A) (A) (A) (A) (A) (A)
                 (A) (A) (A) (A) (A) (A) (A) (A) (A) (A) (A) (A)
                 (A) (A) (A) (A) (A) (A) (A) (A) (A) (A) (A) (A)
                 (A) (A) (A) (A) (A) (A) (A) (A) (A) (A) (A) (A)
                 (A) (A) (A) (A) (A) (A) (A) (A) (A) (A) (A) (A)
                 (A) (A) (A) (A) (A) (A) (A) (A) (A) (A) (A) (A)
                 (A) (A) (A) (A) (A) (A) (A) (A) (A) (A) (A) (A)
                 (A) (A) (A) (A) (A) (A) (A) (A) (A) (A) (A) (A)
                 (A) (A) (A) (A) (A) (A) (A) (A) (A) (A) (A) (A)
                 (A) (A) (A) (A) (A) (A) (A) (A) (A) (A) (A) (A)
                 (A) (A) (A) (A) (A) (A) (A) (A) (A) (A) (A) (A)
                 (A) (A) (A) (A) (A) (A) (A) (A) (A) (A) (A) (A)
                 (A) (A) (A) (A)
    24 initial guesses have been made.
 Convergence on wavefunction:    0.001000000000000
 Davidson Disk Diagonalization:  ConvIn= 1.00D-03 SkipCon=T Conv= 1.00D-03.
 Max sub-space:  2000 roots to seek:    24 dimension of matrix:        23104
 Iteration     1 Dimension    24 NMult     0 NNew     24
 CISAX will form    24 AO SS matrices at one time.
 NMat=    24 NSing=    24 JSym2X= 0.
 FoFJK:  IHMeth= 1 ICntrl=       0 DoSepK=T KAlg= 0 I1Cent=           0 FoldK=F
 IRaf=         1 NMat=      48 IRICut=       1 DoRegI=T DoRafI=F ISym2E= 0 IDoP0=3 IntGTp=3.
 New state      2 was old state      3
 New state      3 was old state      4
 New state      4 was old state      2
 New state      5 was old state      6
 New state      6 was old state      5
 Excitation Energies [eV] at current iteration:
 Root      1 :     4.026151953141592
 Root      2 :     4.360996019438995
 Root      3 :     4.538963302345563
 Root      4 :     5.584782869547864
 Root      5 :     6.233026504664480
 Root      6 :     6.495454901626836
 Root      7 :     6.774426750499931
 Root      8 :     6.818279410892505
 Root      9 :     7.030739083076559
 Root     10 :     7.107008572970364
 Root     11 :     7.263318817959894
 Root     12 :     7.478931900719544
 Root     13 :     7.629457056876821
 Root     14 :     7.702200335374152
 Root     15 :     7.787161753767966
 Root     16 :     8.066243911714551
 Root     17 :     8.138744161112552
 Root     18 :     8.271684715351347
 Root     19 :     8.312358044374145
 Root     20 :     8.599293010244210
 Root     21 :     8.709467175314463
 Root     22 :     9.010605467917131
 Root     23 :     9.090577612894203
 Root     24 :     9.155709767903566
 Iteration     2 Dimension    36 NMult    24 NNew     12
 CISAX will form    12 AO SS matrices at one time.
 NMat=    12 NSing=    12 JSym2X= 0.
 Root      1 not converged, maximum delta is    0.055774231564009
 Root      2 not converged, maximum delta is    0.072689769153377
 Root      3 not converged, maximum delta is    0.090860318839880
 Root      4 not converged, maximum delta is    0.275874054974946
 New state      5 was old state      6
 Root      5 not converged, maximum delta is    0.276182316792495
 New state      6 was old state      5
 Root      6 not converged, maximum delta is    0.174418184899227
 Excitation Energies [eV] at current iteration:
 Root      1 :     3.592732053431410   Change is   -0.433419899710182
 Root      2 :     4.116386763868110   Change is   -0.244609255570884
 Root      3 :     4.260599142754331   Change is   -0.278364159591232
 Root      4 :     5.228611207461053   Change is   -0.356171662086811
 Root      5 :     5.694170631170144   Change is   -0.801284270456691
 Root      6 :     6.106209702201990   Change is   -0.126816802462489
 Iteration     3 Dimension    48 NMult    36 NNew     12
 CISAX will form    12 AO SS matrices at one time.
 NMat=    12 NSing=    12 JSym2X= 0.
 Root      1 not converged, maximum delta is    0.009108725709166
 Root      2 not converged, maximum delta is    0.013101841080586
 Root      3 not converged, maximum delta is    0.013556245001314
 Root      4 not converged, maximum delta is    0.019836831088123
 Root      5 not converged, maximum delta is    0.020358832539478
 Root      6 not converged, maximum delta is    0.018674862399836
 Excitation Energies [eV] at current iteration:
 Root      1 :     3.575485040730133   Change is   -0.017247012701277
 Root      2 :     4.102531072781592   Change is   -0.013855691086518
 Root      3 :     4.246164593610797   Change is   -0.014434549143534
 Root      4 :     5.206414936188400   Change is   -0.022196271272652
 Root      5 :     5.667675285682751   Change is   -0.026495345487393
 Root      6 :     6.095610987357713   Change is   -0.010598714844277
 Iteration     4 Dimension    60 NMult    48 NNew     12
 CISAX will form    12 AO SS matrices at one time.
 NMat=    12 NSing=    12 JSym2X= 0.
 Root      1 not converged, maximum delta is    0.002304842298648
 Root      2 not converged, maximum delta is    0.002014927946792
 Root      3 not converged, maximum delta is    0.002124229221429
 Root      4 not converged, maximum delta is    0.002505265768540
 Root      5 not converged, maximum delta is    0.002713108246441
 Root      6 not converged, maximum delta is    0.003644413825426
 Excitation Energies [eV] at current iteration:
 Root      1 :     3.574007016275630   Change is   -0.001478024454503
 Root      2 :     4.101684155697333   Change is   -0.000846917084259
 Root      3 :     4.245341266662715   Change is   -0.000823326948082
 Root      4 :     5.204767616523045   Change is   -0.001647319665356
 Root      5 :     5.665441096614258   Change is   -0.002234189068494
 Root      6 :     6.094836857565144   Change is   -0.000774129792569
 Iteration     5 Dimension    72 NMult    60 NNew     12
 CISAX will form    12 AO SS matrices at one time.
 NMat=    12 NSing=    12 JSym2X= 0.
 Root      1 has converged.
 Root      2 has converged.
 Root      3 has converged.
 Root      4 has converged.
 Root      5 not converged, maximum delta is    0.001138763031465
 Root      6 has converged.
 Excitation Energies [eV] at current iteration:
 Root      1 :     3.573925945820540   Change is   -0.000081070455091
 Root      2 :     4.101635527673893   Change is   -0.000048628023440
 Root      3 :     4.245292952677487   Change is   -0.000048313985228
 Root      4 :     5.204617948635814   Change is   -0.000149667887231
 Root      5 :     5.665216605423423   Change is   -0.000224491190836
 Root      6 :     6.094778113248079   Change is   -0.000058744317066
 Iteration     6 Dimension    74 NMult    72 NNew      2
 CISAX will form     2 AO SS matrices at one time.
 NMat=     2 NSing=     2 JSym2X= 0.
 Root      1 has converged.
 Root      2 has converged.
 Root      3 has converged.
 Root      4 has converged.
 Root      5 has converged.
 Root      6 has converged.
 Excitation Energies [eV] at current iteration:
 Root      1 :     3.573925904571202   Change is   -0.000000041249338
 Root      2 :     4.101635507997934   Change is   -0.000000019675959
 Root      3 :     4.245292916541731   Change is   -0.000000036135756
 Root      4 :     5.204613362388557   Change is   -0.000004586247257
 Root      5 :     5.665201634384265   Change is   -0.000014971039157
 Root      6 :     6.094777900094745   Change is   -0.000000213153334
 Convergence achieved on expansion vectors.
 ***********************************************************************
 Excited states from <AA,BB:AA,BB> singles matrix:
 ***********************************************************************
 
 1PDM for each excited state written to RWF  633
 Ground to excited state transition densities written to RWF  633
 Ground to excited state transition electric dipole moments (Au):
       state          X           Y           Z        Dip. S.      Osc.
         1        -1.4604      0.1545      0.0385      2.1581      0.1890
         2        -0.1900     -0.0027      0.0446      0.0381      0.0038
         3        -0.0018      0.1173     -0.0361      0.0151      0.0016
         4        -0.1604     -1.3458      0.1291      1.8537      0.2364
         5        -0.0676     -1.4654      0.0549      2.1550      0.2991
         6         0.0303      0.2140      0.0861      0.0541      0.0081
 Ground to excited state transition velocity dipole moments (Au):
       state          X           Y           Z        Dip. S.      Osc.
         1         0.1838     -0.0156     -0.0060      0.0341      0.1730
         2         0.0276      0.0007     -0.0040      0.0008      0.0034
         3         0.0005     -0.0171      0.0022      0.0003      0.0013
         4         0.0325      0.2451     -0.0195      0.0615      0.2143
         5         0.0146      0.2987     -0.0116      0.0896      0.2868
         6        -0.0073     -0.0443     -0.0381      0.0035      0.0103
 Ground to excited state transition magnetic dipole moments (Au):
       state          X           Y           Z
         1        -0.1118      0.0158     -1.4151
         2         0.8014     -0.1502     -0.4244
         3         0.1512     -1.0009     -0.1706
         4         0.0512     -0.0862      0.0341
         5         0.2237     -0.1110      0.2767
         6        -0.0781     -0.0022      0.0003
 Ground to excited state transition velocity quadrupole moments (Au):
       state          XX          YY          ZZ          XY          XZ          YZ
         1        -0.1459      0.0868     -0.0003     -0.5286      0.0649      0.0087
         2        -0.0010     -0.0039      0.0032     -0.0755      0.0239      0.0802
         3         0.0035     -0.0075      0.0287     -0.0420      0.0616      0.0058
         4        -1.1047      0.2515     -0.0151      0.0414      0.0757     -0.0581
         5        -0.7001      0.2824      0.0534      0.1919      0.0768      0.0358
         6        -0.1758     -0.1964      0.1846      0.0103      0.0289      0.0032
 <0|del|b> * <b|rxdel|0> + <0|del|b> * <b|delr+rdel|0>
 Rotatory Strengths (R) in cgs (10**-40 erg-esu-cm/Gauss)
       state          XX          YY          ZZ    R(velocity)    E-M Angle
         1        33.4155    -36.7426    -63.0423    -22.1231       92.70
         2         4.4045     60.2571     46.4143     37.0253       22.37
         3        40.2228     -0.4483     36.6398     25.4714       18.09
         4       -76.0754     -0.1529      1.8103    -24.8060      140.04
         5      -104.4884      4.7857    -12.6715    -37.4581      107.25
         6         1.5332      1.4630     -0.9286      0.6892       81.81
 1/2[<0|r|b>*<b|rxdel|0> + (<0|rxdel|b>*<b|r|0>)*]
 Rotatory Strengths (R) in cgs (10**-40 erg-esu-cm/Gauss)
       state          XX          YY          ZZ     R(length)
         1      -115.5036     -1.7229     38.5086    -26.2393
         2       107.7054     -0.2888     13.3754     40.2640
         3         0.1939     83.0147     -4.3532     26.2851
         4         5.8047    -82.0493     -3.1168    -26.4538
         5        10.6951   -115.0300    -10.7433    -38.3594
         6         1.6708      0.3359     -0.0180      0.6629
  1/2[<0|del|b>*<b|r|0> + (<0|r|b>*<b|del|0>)*] (Au)
       state          X           Y           Z        Dip. S.   Osc.(frdel)
         1        -0.2685     -0.0024     -0.0002      0.2711      0.1807
         2        -0.0052     -0.0000     -0.0002      0.0054      0.0036
         3        -0.0000     -0.0020     -0.0001      0.0021      0.0014
         4        -0.0052     -0.3298     -0.0025      0.3375      0.2250
         5        -0.0010     -0.4377     -0.0006      0.4393      0.2929
         6        -0.0002     -0.0095     -0.0033      0.0130      0.0086

 Excitation energies and oscillator strengths:
 
 Excited State   1:      Singlet-A      3.5739 eV  346.91 nm  f=0.1890  <S**2>=0.000
      52 -> 53         0.69712
 This state for optimization and/or second-order correction.
 Total Energy, E(TD-HF/TD-DFT) =  -633.197613406    
 Copying the excited state density for this state as the 1-particle RhoCI density.
 
 Excited State   2:      Singlet-A      4.1016 eV  302.28 nm  f=0.0038  <S**2>=0.000
      50 -> 54         0.19508
      51 -> 53         0.55594
      51 -> 54         0.33349
 
 Excited State   3:      Singlet-A      4.2453 eV  292.05 nm  f=0.0016  <S**2>=0.000
      49 -> 53         0.20471
      49 -> 54        -0.14435
      50 -> 53         0.53159
      50 -> 54        -0.26730
      50 -> 58         0.11159
      51 -> 54         0.21056
 
 Excited State   4:      Singlet-A      5.2046 eV  238.22 nm  f=0.2364  <S**2>=0.000
      52 -> 54         0.69686
 
 Excited State   5:      Singlet-A      5.6652 eV  218.85 nm  f=0.2991  <S**2>=0.000
      49 -> 53         0.62878
      50 -> 53        -0.23091
      51 -> 53         0.15561
 
 Excited State   6:      Singlet-A      6.0948 eV  203.43 nm  f=0.0081  <S**2>=0.000
      52 -> 55         0.66525
      52 -> 56         0.12003
 SavETr:  write IOETrn=   770 NScale= 10 NData=  16 NLR=1 NState=    6 LETran=     118.
 Leave Link  914 at Tue Jan 20 18:25:49 2026, MaxMem=  2147483648 cpu:            5581.3 elap:             177.0
 (Enter /data/home/wyx/g16/l601.exe)
 Copying SCF densities to generalized density rwf, IOpCl= 0 IROHF=0.

 **********************************************************************

            Population analysis using the SCF density.

 **********************************************************************

 Orbital symmetries:
       Occupied  (A) (A) (A) (A) (A) (A) (A) (A) (A) (A) (A) (A)
                 (A) (A) (A) (A) (A) (A) (A) (A) (A) (A) (A) (A)
                 (A) (A) (A) (A) (A) (A) (A) (A) (A) (A) (A) (A)
                 (A) (A) (A) (A) (A) (A) (A) (A) (A) (A) (A) (A)
                 (A) (A) (A) (A)
       Virtual   (A) (A) (A) (A) (A) (A) (A) (A) (A) (A) (A) (A)
                 (A) (A) (A) (A) (A) (A) (A) (A) (A) (A) (A) (A)
                 (A) (A) (A) (A) (A) (A) (A) (A) (A) (A) (A) (A)
                 (A) (A) (A) (A) (A) (A) (A) (A) (A) (A) (A) (A)
                 (A) (A) (A) (A) (A) (A) (A) (A) (A) (A) (A) (A)
                 (A) (A) (A) (A) (A) (A) (A) (A) (A) (A) (A) (A)
                 (A) (A) (A) (A) (A) (A) (A) (A) (A) (A) (A) (A)
                 (A) (A) (A) (A) (A) (A) (A) (A) (A) (A) (A) (A)
                 (A) (A) (A) (A) (A) (A) (A) (A) (A) (A) (A) (A)
                 (A) (A) (A) (A) (A) (A) (A) (A) (A) (A) (A) (A)
                 (A) (A) (A) (A) (A) (A) (A) (A) (A) (A) (A) (A)
                 (A) (A) (A) (A) (A) (A) (A) (A) (A) (A) (A) (A)
                 (A) (A) (A) (A) (A) (A) (A) (A) (A) (A) (A) (A)
                 (A) (A) (A) (A) (A) (A) (A) (A) (A) (A) (A) (A)
                 (A) (A) (A) (A) (A) (A) (A) (A) (A) (A) (A) (A)
                 (A) (A) (A) (A) (A) (A) (A) (A) (A) (A) (A) (A)
                 (A) (A) (A) (A) (A) (A) (A) (A) (A) (A) (A) (A)
                 (A) (A) (A) (A) (A) (A) (A) (A) (A) (A) (A) (A)
                 (A) (A) (A) (A) (A) (A) (A) (A) (A) (A) (A) (A)
                 (A) (A) (A) (A) (A) (A) (A) (A) (A) (A) (A) (A)
                 (A) (A) (A) (A) (A) (A) (A) (A) (A) (A) (A) (A)
                 (A) (A) (A) (A) (A) (A) (A) (A) (A) (A) (A) (A)
                 (A) (A) (A) (A) (A) (A) (A) (A) (A) (A) (A) (A)
                 (A) (A) (A) (A) (A) (A) (A) (A) (A) (A) (A) (A)
                 (A) (A) (A) (A) (A) (A) (A) (A) (A) (A) (A) (A)
                 (A) (A) (A) (A)
 The electronic state is 1-A.
 Alpha  occ. eigenvalues --  -19.17892 -19.17407 -14.44051 -10.33474 -10.33076
 Alpha  occ. eigenvalues --  -10.31947 -10.31385 -10.25935 -10.25061 -10.24848
 Alpha  occ. eigenvalues --  -10.24821 -10.24498 -10.24292 -10.23765  -1.12110
 Alpha  occ. eigenvalues --   -1.11608  -1.07375  -0.91195  -0.90195  -0.83792
 Alpha  occ. eigenvalues --   -0.82501  -0.81570  -0.78469  -0.74010  -0.71021
 Alpha  occ. eigenvalues --   -0.68545  -0.61516  -0.58176  -0.56745  -0.55162
 Alpha  occ. eigenvalues --   -0.54516  -0.53976  -0.52573  -0.51917  -0.50747
 Alpha  occ. eigenvalues --   -0.50023  -0.49493  -0.49104  -0.48611  -0.48137
 Alpha  occ. eigenvalues --   -0.46862  -0.45352  -0.45083  -0.43382  -0.43069
 Alpha  occ. eigenvalues --   -0.42403  -0.42067  -0.42002  -0.32818  -0.32225
 Alpha  occ. eigenvalues --   -0.31226  -0.26266
 Alpha virt. eigenvalues --   -0.02136   0.02476   0.06304   0.08089   0.08539
 Alpha virt. eigenvalues --    0.10078   0.10723   0.11954   0.12625   0.13491
 Alpha virt. eigenvalues --    0.14284   0.14867   0.15619   0.16039   0.16878
 Alpha virt. eigenvalues --    0.17467   0.17817   0.17879   0.18128   0.19169
 Alpha virt. eigenvalues --    0.19883   0.22008   0.22587   0.23453   0.23573
 Alpha virt. eigenvalues --    0.23895   0.24815   0.25508   0.25897   0.26366
 Alpha virt. eigenvalues --    0.26831   0.27159   0.28738   0.29163   0.30119
 Alpha virt. eigenvalues --    0.31551   0.31938   0.32778   0.33573   0.34232
 Alpha virt. eigenvalues --    0.35436   0.35793   0.36781   0.37991   0.38984
 Alpha virt. eigenvalues --    0.40194   0.40882   0.41759   0.42281   0.42718
 Alpha virt. eigenvalues --    0.43927   0.44095   0.45399   0.45937   0.46152
 Alpha virt. eigenvalues --    0.47168   0.47653   0.47908   0.48329   0.48940
 Alpha virt. eigenvalues --    0.49407   0.50246   0.50612   0.51276   0.51624
 Alpha virt. eigenvalues --    0.52869   0.53099   0.53332   0.54158   0.54449
 Alpha virt. eigenvalues --    0.54505   0.55833   0.56196   0.56662   0.58010
 Alpha virt. eigenvalues --    0.58506   0.59128   0.60478   0.61133   0.62237
 Alpha virt. eigenvalues --    0.63188   0.65463   0.65850   0.66541   0.67889
 Alpha virt. eigenvalues --    0.68560   0.69978   0.71231   0.72304   0.73022
 Alpha virt. eigenvalues --    0.73496   0.73818   0.75005   0.76173   0.77511
 Alpha virt. eigenvalues --    0.78167   0.79781   0.81718   0.83545   0.84176
 Alpha virt. eigenvalues --    0.89183   0.93028   0.98709   0.99940   1.24916
 Alpha virt. eigenvalues --    1.25849   1.27227   1.27490   1.29304   1.31639
 Alpha virt. eigenvalues --    1.32352   1.32974   1.33994   1.35302   1.35880
 Alpha virt. eigenvalues --    1.36517   1.37035   1.38032   1.39262   1.39842
 Alpha virt. eigenvalues --    1.39956   1.40206   1.41138   1.41657   1.41783
 Alpha virt. eigenvalues --    1.43148   1.44068   1.44784   1.45218   1.46806
 Alpha virt. eigenvalues --    1.48096   1.48860   1.49542   1.50605   1.51064
 Alpha virt. eigenvalues --    1.52297   1.52504   1.54245   1.54420   1.57521
 Alpha virt. eigenvalues --    1.58254   1.60438   1.60680   1.61168   1.62170
 Alpha virt. eigenvalues --    1.62462   1.63361   1.64224   1.65222   1.65610
 Alpha virt. eigenvalues --    1.67047   1.67462   1.67727   1.68029   1.68587
 Alpha virt. eigenvalues --    1.68792   1.69859   1.70634   1.72232   1.72444
 Alpha virt. eigenvalues --    1.73110   1.75074   1.75966   1.76792   1.78740
 Alpha virt. eigenvalues --    1.79603   1.83253   1.84381   1.85982   1.86490
 Alpha virt. eigenvalues --    1.86937   1.87173   1.88485   1.88981   1.90738
 Alpha virt. eigenvalues --    1.91535   1.94333   1.95214   1.97899   1.99530
 Alpha virt. eigenvalues --    2.00683   2.03655   2.04230   2.06113   2.09277
 Alpha virt. eigenvalues --    2.11279   2.12851   2.14250   2.16301   2.19295
 Alpha virt. eigenvalues --    2.20373   2.21069   2.21774   2.22446   2.25874
 Alpha virt. eigenvalues --    2.26762   2.27061   2.28752   2.30213   2.31039
 Alpha virt. eigenvalues --    2.32641   2.34653   2.35934   2.36056   2.37748
 Alpha virt. eigenvalues --    2.39423   2.40067   2.41456   2.43920   2.44649
 Alpha virt. eigenvalues --    2.45759   2.47627   2.49981   2.50327   2.51672
 Alpha virt. eigenvalues --    2.52989   2.53365   2.54869   2.56687   2.58580
 Alpha virt. eigenvalues --    2.58962   2.59829   2.60535   2.61224   2.62470
 Alpha virt. eigenvalues --    2.64330   2.65425   2.66883   2.67685   2.69129
 Alpha virt. eigenvalues --    2.70296   2.71923   2.72703   2.73438   2.74611
 Alpha virt. eigenvalues --    2.75912   2.76566   2.77348   2.78092   2.79335
 Alpha virt. eigenvalues --    2.80680   2.81200   2.82778   2.83500   2.84530
 Alpha virt. eigenvalues --    2.85545   2.85838   2.87489   2.90470   2.91631
 Alpha virt. eigenvalues --    2.97764   3.00066   3.01204   3.03294   3.09936
 Alpha virt. eigenvalues --    3.11926   3.15046   3.16273   3.16788   3.19974
 Alpha virt. eigenvalues --    3.20507   3.22182   3.25250   3.26623   3.27001
 Alpha virt. eigenvalues --    3.27673   3.29360   3.33262   3.34802   3.36407
 Alpha virt. eigenvalues --    3.36932   3.38628   3.39633   3.40037   3.41331
 Alpha virt. eigenvalues --    3.42574   3.44549   3.45338   3.46326   3.47854
 Alpha virt. eigenvalues --    3.48071   3.49159   3.55132   3.57967   3.59543
 Alpha virt. eigenvalues --    3.60292   3.89566   3.99068   4.34584   4.36048
 Alpha virt. eigenvalues --   21.62814  21.78900  22.08199  22.10982  22.11513
 Alpha virt. eigenvalues --   22.14155  22.15129  22.17748  22.21107  22.25051
 Alpha virt. eigenvalues --   22.30831  31.93375  43.62780  43.65127
          Condensed to atoms (all electrons):
               1          2          3          4          5          6
     1  O    7.935910   0.000000  -0.000246   0.000018   0.015526   0.018913
     2  O    0.000000   7.965657   0.000457   0.000037  -0.197906   0.000829
     3  N   -0.000246   0.000457   6.411700   0.375848  -0.113106   0.325801
     4  H    0.000018   0.000037   0.375848   0.412353   0.017184  -0.048102
     5  C    0.015526  -0.197906  -0.113106   0.017184   6.911488  -0.047650
     6  C    0.018913   0.000829   0.325801  -0.048102  -0.047650   5.660004
     7  C   -0.000517  -0.029843   0.369504  -0.041524   0.345235  -0.085885
     8  C   -0.000080   0.710655   0.005005  -0.000590  -0.199693   0.023971
     9  C   -0.031543   0.017009   0.015897  -0.000245  -0.419576  -0.152782
    10  H    0.017881  -0.000021  -0.001250   0.000020  -0.102594   0.024567
    11  H    0.002961   0.000073   0.003832   0.000000  -0.032391  -0.014110
    12  C   -0.213755  -0.002098  -0.093130   0.014603   0.119684  -0.201186
    13  C    0.707466  -0.000029  -0.000021   0.000357   0.072583   0.195265
    14  C   -0.000004  -0.011235  -0.036023  -0.008332  -0.068742   0.008555
    15  H   -0.000000   0.004314   0.002209   0.001313   0.018339   0.006564
    16  H   -0.000000   0.001430   0.001811   0.000748  -0.010721  -0.000764
    17  H   -0.000000   0.001229  -0.002935   0.000898  -0.003850  -0.002053
    18  C   -0.000140  -0.105531  -0.000599   0.000020  -0.274638   0.000635
    19  H   -0.000004   0.009472   0.000002  -0.000001   0.024467   0.000029
    20  H    0.000073   0.003262   0.000116   0.000000   0.038907  -0.001011
    21  H    0.000026   0.001210   0.000011  -0.000000   0.005756   0.000246
    22  C   -0.106605   0.000000  -0.000095   0.000118   0.004123  -0.004397
    23  H    0.001119  -0.000000  -0.000045  -0.000017  -0.000104   0.011502
    24  H    0.004635  -0.000000  -0.000100  -0.000050  -0.000543  -0.035717
    25  H    0.007919   0.000000   0.000033  -0.000002  -0.000134  -0.001452
    26  C    0.000906   0.000002  -0.031732  -0.005230   0.000056   0.171953
    27  H   -0.000042  -0.000000  -0.002284   0.000411   0.000396  -0.036192
    28  H   -0.000245   0.000000   0.003546   0.000913   0.000047  -0.044534
    29  H    0.000026  -0.000000  -0.000485   0.000748  -0.000612  -0.049990
               7          8          9         10         11         12
     1  O   -0.000517  -0.000080  -0.031543   0.017881   0.002961  -0.213755
     2  O   -0.029843   0.710655   0.017009  -0.000021   0.000073  -0.002098
     3  N    0.369504   0.005005   0.015897  -0.001250   0.003832  -0.093130
     4  H   -0.041524  -0.000590  -0.000245   0.000020   0.000000   0.014603
     5  C    0.345235  -0.199693  -0.419576  -0.102594  -0.032391   0.119684
     6  C   -0.085885   0.023971  -0.152782   0.024567  -0.014110  -0.201186
     7  C    5.443757  -0.163321  -0.162760   0.018243  -0.003789  -0.005177
     8  C   -0.163321   5.304824   0.065506  -0.009140  -0.004361  -0.026360
     9  C   -0.162760   0.065506   6.195107   0.518666   0.395216   0.076176
    10  H    0.018243  -0.009140   0.518666   0.498709  -0.032402  -0.103361
    11  H   -0.003789  -0.004361   0.395216  -0.032402   0.548872  -0.022776
    12  C   -0.005177  -0.026360   0.076176  -0.103361  -0.022776   7.233020
    13  C    0.009740  -0.004663  -0.256896  -0.001609   0.001620  -0.371532
    14  C    0.254385  -0.039752   0.010519   0.000474  -0.001301  -0.004707
    15  H   -0.072143   0.005576  -0.000153  -0.000002   0.000072  -0.001204
    16  H   -0.029820  -0.007534  -0.000612  -0.000050   0.000186  -0.000084
    17  H   -0.026001  -0.002357   0.000633   0.000050  -0.000067   0.000993
    18  C    0.003074   0.307801   0.002304   0.008641  -0.008511  -0.004694
    19  H    0.000179  -0.052501   0.000268   0.000501  -0.000065  -0.000189
    20  H   -0.000188  -0.059140  -0.009146  -0.004571   0.002043   0.006435
    21  H    0.001639  -0.027247  -0.009626  -0.002797   0.001066  -0.003792
    22  C   -0.000148  -0.000035   0.001578   0.001482   0.001350  -0.254764
    23  H    0.000046   0.000003  -0.001892  -0.000116   0.000135  -0.011465
    24  H    0.000020  -0.000012   0.003365  -0.000096  -0.000109   0.067089
    25  H    0.000007   0.000003   0.000259  -0.000152  -0.000027   0.022740
    26  C    0.001732   0.000349   0.018055   0.000018  -0.000740  -0.073535
    27  H   -0.000736  -0.000008  -0.000109   0.000041  -0.000025  -0.020453
    28  H   -0.000824   0.000002  -0.000890   0.000002  -0.000096  -0.008315
    29  H    0.003887  -0.000005  -0.000513  -0.000009   0.000113   0.024527
              13         14         15         16         17         18
     1  O    0.707466  -0.000004  -0.000000  -0.000000  -0.000000  -0.000140
     2  O   -0.000029  -0.011235   0.004314   0.001430   0.001229  -0.105531
     3  N   -0.000021  -0.036023   0.002209   0.001811  -0.002935  -0.000599
     4  H    0.000357  -0.008332   0.001313   0.000748   0.000898   0.000020
     5  C    0.072583  -0.068742   0.018339  -0.010721  -0.003850  -0.274638
     6  C    0.195265   0.008555   0.006564  -0.000764  -0.002053   0.000635
     7  C    0.009740   0.254385  -0.072143  -0.029820  -0.026001   0.003074
     8  C   -0.004663  -0.039752   0.005576  -0.007534  -0.002357   0.307801
     9  C   -0.256896   0.010519  -0.000153  -0.000612   0.000633   0.002304
    10  H   -0.001609   0.000474  -0.000002  -0.000050   0.000050   0.008641
    11  H    0.001620  -0.001301   0.000072   0.000186  -0.000067  -0.008511
    12  C   -0.371532  -0.004707  -0.001204  -0.000084   0.000993  -0.004694
    13  C    5.406196  -0.000068  -0.000013  -0.000001  -0.000024   0.000369
    14  C   -0.000068   5.066750   0.382520   0.427567   0.410703   0.001548
    15  H   -0.000013   0.382520   0.583740  -0.027955  -0.026623   0.000307
    16  H   -0.000001   0.427567  -0.027955   0.506212  -0.025958  -0.000273
    17  H   -0.000024   0.410703  -0.026623  -0.025958   0.510355  -0.000122
    18  C    0.000369   0.001548   0.000307  -0.000273  -0.000122   5.362786
    19  H   -0.000014   0.000067  -0.000006   0.000026  -0.000017   0.390093
    20  H    0.000408   0.000052  -0.000017  -0.000040   0.000007   0.380802
    21  H   -0.000011  -0.000284  -0.000007   0.000030  -0.000007   0.396164
    22  C    0.278492  -0.000026   0.000002  -0.000000   0.000000   0.000022
    23  H   -0.021390  -0.000000   0.000000  -0.000000   0.000000  -0.000002
    24  H   -0.090705  -0.000002   0.000000   0.000000   0.000000   0.000003
    25  H   -0.040742   0.000000   0.000000   0.000000  -0.000000  -0.000001
    26  C   -0.052280   0.001443   0.000047   0.000061  -0.000196   0.000028
    27  H    0.006176  -0.000097   0.000001   0.000004  -0.000014  -0.000001
    28  H   -0.005420   0.000096  -0.000012  -0.000001   0.000001  -0.000000
    29  H   -0.000538  -0.000280   0.000129  -0.000005   0.000004   0.000000
              19         20         21         22         23         24
     1  O   -0.000004   0.000073   0.000026  -0.106605   0.001119   0.004635
     2  O    0.009472   0.003262   0.001210   0.000000  -0.000000  -0.000000
     3  N    0.000002   0.000116   0.000011  -0.000095  -0.000045  -0.000100
     4  H   -0.000001   0.000000  -0.000000   0.000118  -0.000017  -0.000050
     5  C    0.024467   0.038907   0.005756   0.004123  -0.000104  -0.000543
     6  C    0.000029  -0.001011   0.000246  -0.004397   0.011502  -0.035717
     7  C    0.000179  -0.000188   0.001639  -0.000148   0.000046   0.000020
     8  C   -0.052501  -0.059140  -0.027247  -0.000035   0.000003  -0.000012
     9  C    0.000268  -0.009146  -0.009626   0.001578  -0.001892   0.003365
    10  H    0.000501  -0.004571  -0.002797   0.001482  -0.000116  -0.000096
    11  H   -0.000065   0.002043   0.001066   0.001350   0.000135  -0.000109
    12  C   -0.000189   0.006435  -0.003792  -0.254764  -0.011465   0.067089
    13  C   -0.000014   0.000408  -0.000011   0.278492  -0.021390  -0.090705
    14  C    0.000067   0.000052  -0.000284  -0.000026  -0.000000  -0.000002
    15  H   -0.000006  -0.000017  -0.000007   0.000002   0.000000   0.000000
    16  H    0.000026  -0.000040   0.000030  -0.000000  -0.000000   0.000000
    17  H   -0.000017   0.000007  -0.000007   0.000000   0.000000   0.000000
    18  C    0.390093   0.380802   0.396164   0.000022  -0.000002   0.000003
    19  H    0.505085  -0.020490  -0.010025  -0.000000   0.000000   0.000000
    20  H   -0.020490   0.536502  -0.026604   0.000013  -0.000000  -0.000000
    21  H   -0.010025  -0.026604   0.504976  -0.000013   0.000000  -0.000000
    22  C   -0.000000   0.000013  -0.000013   5.420990   0.399890   0.399770
    23  H    0.000000  -0.000000   0.000000   0.399890   0.495436  -0.027293
    24  H    0.000000  -0.000000  -0.000000   0.399770  -0.027293   0.539434
    25  H   -0.000000  -0.000000  -0.000000   0.385191  -0.007702  -0.021610
    26  C    0.000000  -0.000014   0.000006  -0.026451  -0.016017   0.015161
    27  H   -0.000000  -0.000000   0.000000  -0.010679   0.001134  -0.001297
    28  H   -0.000000  -0.000000  -0.000000   0.008943  -0.000562  -0.010925
    29  H    0.000000   0.000000  -0.000000   0.001986   0.000237   0.000750
              25         26         27         28         29
     1  O    0.007919   0.000906  -0.000042  -0.000245   0.000026
     2  O    0.000000   0.000002  -0.000000   0.000000  -0.000000
     3  N    0.000033  -0.031732  -0.002284   0.003546  -0.000485
     4  H   -0.000002  -0.005230   0.000411   0.000913   0.000748
     5  C   -0.000134   0.000056   0.000396   0.000047  -0.000612
     6  C   -0.001452   0.171953  -0.036192  -0.044534  -0.049990
     7  C    0.000007   0.001732  -0.000736  -0.000824   0.003887
     8  C    0.000003   0.000349  -0.000008   0.000002  -0.000005
     9  C    0.000259   0.018055  -0.000109  -0.000890  -0.000513
    10  H   -0.000152   0.000018   0.000041   0.000002  -0.000009
    11  H   -0.000027  -0.000740  -0.000025  -0.000096   0.000113
    12  C    0.022740  -0.073535  -0.020453  -0.008315   0.024527
    13  C   -0.040742  -0.052280   0.006176  -0.005420  -0.000538
    14  C    0.000000   0.001443  -0.000097   0.000096  -0.000280
    15  H    0.000000   0.000047   0.000001  -0.000012   0.000129
    16  H    0.000000   0.000061   0.000004  -0.000001  -0.000005
    17  H   -0.000000  -0.000196  -0.000014   0.000001   0.000004
    18  C   -0.000001   0.000028  -0.000001  -0.000000   0.000000
    19  H   -0.000000   0.000000  -0.000000  -0.000000   0.000000
    20  H   -0.000000  -0.000014  -0.000000  -0.000000   0.000000
    21  H   -0.000000   0.000006   0.000000  -0.000000  -0.000000
    22  C    0.385191  -0.026451  -0.010679   0.008943   0.001986
    23  H   -0.007702  -0.016017   0.001134  -0.000562   0.000237
    24  H   -0.021610   0.015161  -0.001297  -0.010925   0.000750
    25  H    0.491765   0.001836   0.000093   0.000931  -0.000044
    26  C    0.001836   5.257427   0.430118   0.426883   0.389736
    27  H    0.000093   0.430118   0.481247  -0.023941  -0.019913
    28  H    0.000931   0.426883  -0.023941   0.509811  -0.027028
    29  H   -0.000044   0.389736  -0.019913  -0.027028   0.524625
 Mulliken charges:
               1
     1  O   -0.360198
     2  O   -0.368974
     3  N   -0.233722
     4  H    0.278505
     5  C   -0.101527
     6  C    0.276991
     7  C    0.171227
     8  C    0.173104
     9  C   -0.273817
    10  H    0.168876
    11  H    0.163234
    12  C   -0.142692
    13  C    0.167281
    14  C   -0.393825
    15  H    0.123001
    16  H    0.165746
    17  H    0.165350
    18  C   -0.460083
    19  H    0.153122
    20  H    0.152601
    21  H    0.169284
    22  C   -0.500735
    23  H    0.177103
    24  H    0.158234
    25  H    0.161090
    26  C   -0.509619
    27  H    0.196171
    28  H    0.171620
    29  H    0.152654
 Sum of Mulliken charges =  -0.00000
 Mulliken charges with hydrogens summed into heavy atoms:
               1
     1  O   -0.360198
     2  O   -0.368974
     3  N    0.044783
     5  C   -0.101527
     6  C    0.276991
     7  C    0.171227
     8  C    0.173104
     9  C    0.058293
    12  C   -0.142692
    13  C    0.167281
    14  C    0.060272
    18  C    0.014923
    22  C   -0.004308
    26  C    0.010826
 Electronic spatial extent (au):  <R**2>=           3181.5988
 Charge=             -0.0000 electrons
 Dipole moment (field-independent basis, Debye):
    X=              3.7974    Y=              6.8782    Z=             -0.3399  Tot=              7.8642
 Quadrupole moment (field-independent basis, Debye-Ang):
   XX=            -96.9210   YY=            -78.9922   ZZ=            -85.0214
   XY=             12.1391   XZ=              5.6489   YZ=             -1.3977
 Traceless Quadrupole moment (field-independent basis, Debye-Ang):
   XX=             -9.9428   YY=              7.9860   ZZ=              1.9568
   XY=             12.1391   XZ=              5.6489   YZ=             -1.3977
 Octapole moment (field-independent basis, Debye-Ang**2):
  XXX=            103.4363  YYY=             60.3203  ZZZ=              2.1194  XYY=            -33.1877
  XXY=             28.3041  XXZ=            -10.6087  XZZ=              2.5353  YZZ=             -1.5625
  YYZ=              3.0776  XYZ=             -5.1158
 Hexadecapole moment (field-independent basis, Debye-Ang**3):
 XXXX=          -3002.1429 YYYY=          -1276.7903 ZZZZ=           -161.8701 XXXY=             34.3195
 XXXZ=             65.1504 YYYX=             83.3316 YYYZ=            -21.6842 ZZZX=             -2.4281
 ZZZY=              6.2586 XXYY=           -690.1233 XXZZ=           -487.0488 YYZZ=           -243.0466
 XXYZ=             -6.5246 YYXZ=              6.0928 ZZXY=             -1.7332
 N-N= 9.007021977949D+02 E-N=-3.277490929392D+03  KE= 6.307042836999D+02
 Leave Link  601 at Tue Jan 20 18:25:49 2026, MaxMem=  2147483648 cpu:               1.5 elap:               0.1
 (Enter /data/home/wyx/g16/l9999.exe)
 Electronic transition elements 
                 1             2             3             4             5 
      1  -0.633198D+03 -0.633178D+03 -0.633173D+03 -0.633138D+03 -0.633121D+03
      2  -0.142295D+01 -0.182089D+00 -0.365871D-01  0.282635D+00  0.417771D+00
      3  -0.346486D+00 -0.655082D-01  0.108788D+00 -0.131706D+01 -0.140022D+01
      4  -0.115390D+00  0.257181D-01 -0.434588D-01  0.197911D+00  0.140915D+00
      5   0.177966D+00  0.260253D-01  0.592529D-02 -0.488116D-01 -0.842904D-01
      6   0.472122D-01  0.983246D-02 -0.158948D-01  0.241041D+00  0.285664D+00
      7   0.131401D-01 -0.129496D-02  0.327774D-02 -0.317336D-01 -0.290313D-01
      8   0.514864D-01  0.848652D+00  0.493834D+00  0.726731D-01  0.214766D+00
      9  -0.606847D-01  0.117785D+00 -0.895282D+00 -0.629410D-01 -0.215625D-01
     10  -0.141737D+01 -0.333046D+00 -0.910030D-01  0.444029D-01  0.303847D+00
     11   0.197688D+00  0.467018D-01  0.160744D-01 -0.986918D+00 -0.714867D+00
     12  -0.273875D+00 -0.470348D-01 -0.315500D-01  0.121555D+00  0.295400D+00
     13   0.168422D-01 -0.134341D-02  0.401190D-01 -0.297792D-02  0.551197D-01
     14  -0.481426D+00 -0.668007D-01 -0.304190D-01 -0.390124D+00 -0.167402D+00
     15   0.939222D-01  0.241729D-02  0.555533D-01 -0.103336D-01 -0.233250D-01
     16  -0.176545D-01  0.778193D-01  0.245383D-01 -0.777875D-01  0.342559D-01
                 6 
      1  -0.633105D+03
      2  -0.526565D-01
      3   0.213855D+00
      4   0.748844D-01
      5   0.122615D-01
      6  -0.451180D-01
      7  -0.357866D-01
      8  -0.724007D-01
      9  -0.284365D-01
     10  -0.725436D-02
     11  -0.185688D+00
     12  -0.186508D+00
     13   0.184677D+00
     14   0.125167D-01
     15  -0.167332D-01
     16   0.242702D-01
 1\1\GINC-CN012\SP\RCAM-B3LYP TD-FC\TZVP\C11H15N1O2\WYX\20-Jan-2026\0\\
 #p CAM-B3LYP/TZVP em=gd3bj TD=NStates=6 SCRF=Solvent=TetraHydroFuran G
 eom=Check Guess=Read\\Title Card Required\\0,1\O,0,1.3883960775,9.8336
 717387,0.5582315683\O,0,-4.8624938871,9.7804897797,0.5013599976\N,0,-2
 .0755189786,12.9057425299,-0.0090041963\H,0,-2.3838893731,13.862568103
 7,-0.063572052\C,0,-2.6812822897,10.6400273681,0.15989486\C,0,-0.74063
 3194,12.6900307684,0.267654284\C,0,-3.0525031751,11.937883029,0.085819
 1433\C,0,-3.671671872,9.5713867266,0.3018715906\C,0,-1.2214358023,10.2
 796174369,0.0028412219\H,0,-0.9669008589,9.4283125823,0.6298412022\H,0
 ,-1.0147658763,9.9468965913,-1.0229871782\C,0,-0.2936872008,11.4185556
 739,0.3638064623\C,0,1.0656547577,11.0043009112,0.7227901156\C,0,-4.44
 50907741,12.4816792995,0.1004719844\H,0,-4.4475660774,13.5278211779,-0
 .2061933153\H,0,-5.0972683201,11.9112858027,-0.5540871906\H,0,-4.87219
 53269,12.4112791319,1.1005990847\C,0,-3.1783922666,8.1491167399,0.1948
 310844\H,0,-4.0337076815,7.4797541298,0.1566583063\H,0,-2.5539959462,8
 .005148551,-0.6875185976\H,0,-2.567852293,7.8954501681,1.0639636569\C,
 0,2.0797773278,11.9426549791,1.3319192407\H,0,2.5961278604,12.50159603
 7,0.5496536412\H,0,1.6400497254,12.6545928673,2.0255843794\H,0,2.81913
 26528,11.3372009929,1.8507580616\C,0,0.02271256,13.9704101926,0.424859
 6158\H,0,0.0390753624,14.2875882736,1.4688263161\H,0,1.043909652,13.89
 24786926,0.0732762301\H,0,-0.4631558123,14.7582941741,-0.1501495175\\V
 ersion=ES64L-G16RevA.03\State=1-A\HF=-633.3289528\RMSD=1.731e-09\PG=C0
 1 [X(C11H15N1O2)]\\@


 ALL OUR THINKING ABOUT NATURE MUST NECESSARILY MOVE IN CIRCLES OR SPIRALS;
 FOR WE CAN ONLY UNDERSTAND NATURE IF WE THINK ABOUT HER, AND WE CAN ONLY
 THINK BECAUSE OUR BRAIN IS BUILT IN ACCORDANCE WITH NATURE'S LAWS.

                                             -- TIMOTHY FERRIS, "GALAXIES"
 Job cpu time:       0 days  1 hours 35 minutes 29.9 seconds.
 Elapsed time:       0 days  0 hours  3 minutes  2.2 seconds.
 File lengths (MBytes):  RWF=    819 Int=      0 D2E=      0 Chk=     67 Scr=      1
 Normal termination of Gaussian 16 at Tue Jan 20 18:25:53 2026.
