 Entering Gaussian System, Link 0=g16
 Input=DDL-S2-TD-Neq.gjf
 Output=DDL-S2-TD-Neq.log
 Initial command:
 /data/home/wyx/g16/l1.exe "/scr/tmp/wyx/13032/Gau-1885608.inp" -scrdir="/scr/tmp/wyx/13032/"
 Entering Link 1 = /data/home/wyx/g16/l1.exe PID=   1885609.
  
 Copyright (c) 1988,1990,1992,1993,1995,1998,2003,2009,2016,
            Gaussian, Inc.  All Rights Reserved.
  
 This is part of the Gaussian(R) 16 program.  It is based on
 the Gaussian(R) 09 system (copyright 2009, Gaussian, Inc.),
 the Gaussian(R) 03 system (copyright 2003, Gaussian, Inc.),
 the Gaussian(R) 98 system (copyright 1998, Gaussian, Inc.),
 the Gaussian(R) 94 system (copyright 1995, Gaussian, Inc.),
 the Gaussian 92(TM) system (copyright 1992, Gaussian, Inc.),
 the Gaussian 90(TM) system (copyright 1990, Gaussian, Inc.),
 the Gaussian 88(TM) system (copyright 1988, Gaussian, Inc.),
 the Gaussian 86(TM) system (copyright 1986, Carnegie Mellon
 University), and the Gaussian 82(TM) system (copyright 1983,
 Carnegie Mellon University). Gaussian is a federally registered
 trademark of Gaussian, Inc.
  
 This software contains proprietary and confidential information,
 including trade secrets, belonging to Gaussian, Inc.
  
 This software is provided under written license and may be
 used, copied, transmitted, or stored only in accord with that
 written license.
  
 The following legend is applicable only to US Government
 contracts under FAR:
  
                    RESTRICTED RIGHTS LEGEND
  
 Use, reproduction and disclosure by the US Government is
 subject to restrictions as set forth in subparagraphs (a)
 and (c) of the Commercial Computer Software - Restricted
 Rights clause in FAR 52.227-19.
  
 Gaussian, Inc.
 340 Quinnipiac St., Bldg. 40, Wallingford CT 06492
  
  
 ---------------------------------------------------------------
 Warning -- This program may not be used in any manner that
 competes with the business of Gaussian, Inc. or will provide
 assistance to any competitor of Gaussian, Inc.  The licensee
 of this program is prohibited from giving any competitor of
 Gaussian, Inc. access to this program.  By using this program,
 the user acknowledges that Gaussian, Inc. is engaged in the
 business of creating and licensing software in the field of
 computational chemistry and represents and warrants to the
 licensee that it is not a competitor of Gaussian, Inc. and that
 it will not use this program in any manner prohibited above.
 ---------------------------------------------------------------
  

 Cite this work as:
 Gaussian 16, Revision A.03,
 M. J. Frisch, G. W. Trucks, H. B. Schlegel, G. E. Scuseria, 
 M. A. Robb, J. R. Cheeseman, G. Scalmani, V. Barone, 
 G. A. Petersson, H. Nakatsuji, X. Li, M. Caricato, A. V. Marenich, 
 J. Bloino, B. G. Janesko, R. Gomperts, B. Mennucci, H. P. Hratchian, 
 J. V. Ortiz, A. F. Izmaylov, J. L. Sonnenberg, D. Williams-Young, 
 F. Ding, F. Lipparini, F. Egidi, J. Goings, B. Peng, A. Petrone, 
 T. Henderson, D. Ranasinghe, V. G. Zakrzewski, J. Gao, N. Rega, 
 G. Zheng, W. Liang, M. Hada, M. Ehara, K. Toyota, R. Fukuda, 
 J. Hasegawa, M. Ishida, T. Nakajima, Y. Honda, O. Kitao, H. Nakai, 
 T. Vreven, K. Throssell, J. A. Montgomery, Jr., J. E. Peralta, 
 F. Ogliaro, M. J. Bearpark, J. J. Heyd, E. N. Brothers, K. N. Kudin, 
 V. N. Staroverov, T. A. Keith, R. Kobayashi, J. Normand, 
 K. Raghavachari, A. P. Rendell, J. C. Burant, S. S. Iyengar, 
 J. Tomasi, M. Cossi, J. M. Millam, M. Klene, C. Adamo, R. Cammi, 
 J. W. Ochterski, R. L. Martin, K. Morokuma, O. Farkas, 
 J. B. Foresman, and D. J. Fox, Gaussian, Inc., Wallingford CT, 2016.
 
 ******************************************
 Gaussian 16:  ES64L-G16RevA.03 25-Dec-2016
                21-Jan-2026 
 ******************************************
 %nprocshared=32
 Will use up to   32 processors via shared memory.
 %mem=16GB
 %oldchk=DDL-S2-opt-freq.chk
 %chk=DDL-S2-TD-Neq.chk
 Copying data from "DDL-S2-opt-freq.chk" to current chk file "DDL-S2-TD-Neq.chk"
 IOpt=  2 FromEx=T IUOpen= 4 IOptOp= 5 NList=   0 IFRang= 0 IUIn= 4 IUOut= 2.
 ----------------------------------------------------------------------
 #p CAM-B3LYP/TZVP em=gd3bj TD=NStates=6 SCRF=(Solvent=TetraHydroFuran)
  Geom=Check Guess=Read NoSymm
 ----------------------------------------------------------------------
 1/29=2,38=1,172=1/1;
 2/12=2,15=1,40=1/2;
 3/5=19,7=101,11=9,14=-4,25=1,30=1,70=2201,72=20,74=-40,116=-2,124=41/1,2,3,8;
 4/5=1/1;
 5/5=2,38=6,53=20/2;
 8/6=1,10=1,108=6/1;
 9/41=6,42=1,70=2/14;
 6/7=2,8=2,9=2,10=2/1;
 99/5=1,9=1/99;
 Leave Link    1 at Wed Jan 21 04:24:03 2026, MaxMem=  2147483648 cpu:               6.8 elap:               0.7
 (Enter /data/home/wyx/g16/l101.exe)
 -------------------
 Title Card Required
 -------------------
 Structure from the checkpoint file:  "DDL-S2-TD-Neq.chk"
 Charge =  0 Multiplicity = 1
 Redundant internal coordinates found in file.  (old form).
 O,0,1.3473907644,9.840781217,0.897744885
 O,0,-4.8535390638,9.7442733358,-0.2456170687
 N,0,-2.1107444461,12.9210315512,0.360594592
 H,0,-2.4304244301,13.8744613398,0.3217962169
 C,0,-2.6841578447,10.6165204568,0.2193157758
 C,0,-0.779552222,12.7134033086,0.5480856974
 C,0,-3.0670246149,11.9316920878,0.1604423656
 C,0,-3.5900120001,9.5621101328,0.021419646
 C,0,-1.2474536357,10.255933709,0.5279855866
 H,0,-1.1946416811,9.6986431392,1.468385115
 H,0,-0.8660425707,9.5662511647,-0.2275697878
 C,0,-0.303385878,11.4372283009,0.6058463419
 C,0,1.0840972303,11.0376850273,0.7738875042
 C,0,-4.4312790014,12.4689869379,-0.0911832483
 H,0,-4.4386689279,13.145124625,-0.9512112552
 H,0,-5.1432544005,11.6689599328,-0.2965614271
 H,0,-4.8058241918,13.025014943,0.7739331293
 C,0,-3.2686095683,8.0911213467,0.1004193528
 H,0,-3.4687772657,7.6026423352,-0.8561935739
 H,0,-2.2224911485,7.9584887783,0.3586791732
 H,0,-3.8883760468,7.6060433014,0.8580439121
 C,0,2.2405210418,12.0117066387,0.7854066045
 H,0,2.199355291,12.7219371824,-0.0371555231
 H,0,2.2657274328,12.5775552542,1.7173256859
 H,0,3.1579887748,11.433040175,0.7131159106
 C,0,-0.0027017226,13.9934053727,0.6633868693
 H,0,0.6797146258,13.9827010664,1.5069726942
 H,0,0.5768631086,14.1876602453,-0.2385912589
 H,0,-0.6838686389,14.8314315441,0.8032960847
 Recover connectivity data from disk.
 ITRead=  0  0  0  0  0  0  0  0  0  0  0  0  0  0  0  0  0  0  0  0
 ITRead=  0  0  0  0  0  0  0  0  0
 MicOpt= -1 -1 -1 -1 -1 -1 -1 -1 -1 -1 -1 -1 -1 -1 -1 -1 -1 -1 -1 -1
 MicOpt= -1 -1 -1 -1 -1 -1 -1 -1 -1
                           ----------------------------
                           !    Current Parameters    !
                           ! (Angstroms and Degrees)  !
 --------------------------                            --------------------------
 ! Name  Definition              Value                                          !
 --------------------------------------------------------------------------------
 ! R1    R(1,13)                 1.2318                                         !
 ! R2    R(2,8)                  1.3042                                         !
 ! R3    R(3,4)                  1.0063                                         !
 ! R4    R(3,6)                  1.3603                                         !
 ! R5    R(3,7)                  1.3904                                         !
 ! R6    R(5,7)                  1.371                                          !
 ! R7    R(5,8)                  1.4041                                         !
 ! R8    R(5,9)                  1.5131                                         !
 ! R9    R(6,12)                 1.3633                                         !
 ! R10   R(6,26)                 1.5017                                         !
 ! R11   R(7,14)                 1.4877                                         !
 ! R12   R(8,18)                 1.5078                                         !
 ! R13   R(9,10)                 1.0944                                         !
 ! R14   R(9,11)                 1.0918                                         !
 ! R15   R(9,12)                 1.5142                                         !
 ! R16   R(12,13)                1.4536                                         !
 ! R17   R(13,22)                1.512                                          !
 ! R18   R(14,15)                1.094                                          !
 ! R19   R(14,16)                1.0905                                         !
 ! R20   R(14,17)                1.0945                                         !
 ! R21   R(18,19)                1.0926                                         !
 ! R22   R(18,20)                1.0857                                         !
 ! R23   R(18,21)                1.0924                                         !
 ! R24   R(22,23)                1.0875                                         !
 ! R25   R(22,24)                1.0905                                         !
 ! R26   R(22,25)                1.0871                                         !
 ! R27   R(26,27)                1.0851                                         !
 ! R28   R(26,28)                1.0896                                         !
 ! R29   R(26,29)                1.089                                          !
 ! A1    A(4,3,6)              117.4387                                         !
 ! A2    A(4,3,7)              116.7496                                         !
 ! A3    A(6,3,7)              125.7526                                         !
 ! A4    A(7,5,8)              122.2855                                         !
 ! A5    A(7,5,9)              120.1669                                         !
 ! A6    A(8,5,9)              117.5403                                         !
 ! A7    A(3,6,12)             119.3746                                         !
 ! A8    A(3,6,26)             112.751                                          !
 ! A9    A(12,6,26)            127.8741                                         !
 ! A10   A(3,7,5)              118.9666                                         !
 ! A11   A(3,7,14)             113.4572                                         !
 ! A12   A(5,7,14)             127.5748                                         !
 ! A13   A(2,8,5)              123.2976                                         !
 ! A14   A(2,8,18)             110.702                                          !
 ! A15   A(5,8,18)             125.9957                                         !
 ! A16   A(5,9,10)             110.0273                                         !
 ! A17   A(5,9,11)             109.9425                                         !
 ! A18   A(5,9,12)             114.6187                                         !
 ! A19   A(10,9,11)            104.84                                           !
 ! A20   A(10,9,12)            108.8441                                         !
 ! A21   A(11,9,12)            108.0951                                         !
 ! A22   A(6,12,9)             120.6859                                         !
 ! A23   A(6,12,13)            126.5528                                         !
 ! A24   A(9,12,13)            112.7448                                         !
 ! A25   A(1,13,12)            118.8643                                         !
 ! A26   A(1,13,22)            117.4975                                         !
 ! A27   A(12,13,22)           123.6316                                         !
 ! A28   A(7,14,15)            111.2458                                         !
 ! A29   A(7,14,16)            111.446                                          !
 ! A30   A(7,14,17)            111.3221                                         !
 ! A31   A(15,14,16)           107.5149                                         !
 ! A32   A(15,14,17)           107.7635                                         !
 ! A33   A(16,14,17)           107.3468                                         !
 ! A34   A(8,18,19)            110.5636                                         !
 ! A35   A(8,18,20)            109.6975                                         !
 ! A36   A(8,18,21)            110.4022                                         !
 ! A37   A(19,18,20)           109.2801                                         !
 ! A38   A(19,18,21)           107.743                                          !
 ! A39   A(20,18,21)           109.1136                                         !
 ! A40   A(13,22,23)           112.705                                          !
 ! A41   A(13,22,24)           111.0043                                         !
 ! A42   A(13,22,25)           107.5817                                         !
 ! A43   A(23,22,24)           107.9604                                         !
 ! A44   A(23,22,25)           109.2246                                         !
 ! A45   A(24,22,25)           108.2708                                         !
 ! A46   A(6,26,27)            112.124                                          !
 ! A47   A(6,26,28)            111.3191                                         !
 ! A48   A(6,26,29)            110.0121                                         !
 ! A49   A(27,26,28)           108.1079                                         !
 ! A50   A(27,26,29)           107.5233                                         !
 ! A51   A(28,26,29)           107.5704                                         !
 ! D1    D(4,3,6,12)          -179.9512                                         !
 ! D2    D(4,3,6,26)            -0.1544                                         !
 ! D3    D(7,3,6,12)            -2.849                                          !
 ! D4    D(7,3,6,26)           176.9478                                         !
 ! D5    D(4,3,7,5)           -179.2395                                         !
 ! D6    D(4,3,7,14)             0.3607                                         !
 ! D7    D(6,3,7,5)              3.6405                                         !
 ! D8    D(6,3,7,14)          -176.7592                                         !
 ! D9    D(8,5,7,3)           -179.676                                          !
 ! D10   D(8,5,7,14)             0.7867                                         !
 ! D11   D(9,5,7,3)              1.3285                                         !
 ! D12   D(9,5,7,14)          -178.2088                                         !
 ! D13   D(7,5,8,2)              0.7342                                         !
 ! D14   D(7,5,8,18)          -178.4006                                         !
 ! D15   D(9,5,8,2)            179.7548                                         !
 ! D16   D(9,5,8,18)             0.62                                           !
 ! D17   D(7,5,9,10)           116.8402                                         !
 ! D18   D(7,5,9,11)          -128.1829                                         !
 ! D19   D(7,5,9,12)            -6.1973                                         !
 ! D20   D(8,5,9,10)           -62.2021                                         !
 ! D21   D(8,5,9,11)            52.7748                                         !
 ! D22   D(8,5,9,12)           174.7604                                         !
 ! D23   D(3,6,12,9)            -2.8497                                         !
 ! D24   D(3,6,12,13)          178.7388                                         !
 ! D25   D(26,6,12,9)          177.3877                                         !
 ! D26   D(26,6,12,13)          -1.0238                                         !
 ! D27   D(3,6,26,27)          132.6198                                         !
 ! D28   D(3,6,26,28)         -106.1272                                         !
 ! D29   D(3,6,26,29)           13.0174                                         !
 ! D30   D(12,6,26,27)         -47.6046                                         !
 ! D31   D(12,6,26,28)          73.6484                                         !
 ! D32   D(12,6,26,29)        -167.207                                          !
 ! D33   D(3,7,14,15)           56.9587                                         !
 ! D34   D(3,7,14,16)          176.9353                                         !
 ! D35   D(3,7,14,17)          -63.2497                                         !
 ! D36   D(5,7,14,15)         -123.4827                                         !
 ! D37   D(5,7,14,16)           -3.506                                          !
 ! D38   D(5,7,14,17)          116.309                                          !
 ! D39   D(2,8,18,19)           61.458                                          !
 ! D40   D(2,8,18,20)         -177.9528                                         !
 ! D41   D(2,8,18,21)          -57.6728                                         !
 ! D42   D(5,8,18,19)         -119.3151                                         !
 ! D43   D(5,8,18,20)            1.2741                                         !
 ! D44   D(5,8,18,21)          121.5541                                         !
 ! D45   D(5,9,12,6)             7.0194                                         !
 ! D46   D(5,9,12,13)         -174.3642                                         !
 ! D47   D(10,9,12,6)         -116.6523                                         !
 ! D48   D(10,9,12,13)          61.9641                                         !
 ! D49   D(11,9,12,6)          130.0053                                         !
 ! D50   D(11,9,12,13)         -51.3783                                         !
 ! D51   D(6,12,13,1)          175.1495                                         !
 ! D52   D(6,12,13,22)          -5.8128                                         !
 ! D53   D(9,12,13,1)           -3.3692                                         !
 ! D54   D(9,12,13,22)         175.6684                                         !
 ! D55   D(1,13,22,23)         131.3411                                         !
 ! D56   D(1,13,22,24)        -107.4136                                         !
 ! D57   D(1,13,22,25)          10.8767                                         !
 ! D58   D(12,13,22,23)        -47.7088                                         !
 ! D59   D(12,13,22,24)         73.5365                                         !
 ! D60   D(12,13,22,25)       -168.1732                                         !
 --------------------------------------------------------------------------------
 NAtoms=     29 NQM=       29 NQMF=       0 NMMI=      0 NMMIF=      0
                NMic=       0 NMicF=      0.
                    Isotopes and Nuclear Properties:
 (Nuclear quadrupole moments (NQMom) in fm**2, nuclear magnetic moments (NMagM)
  in nuclear magnetons)

  Atom         1           2           3           4           5           6           7           8           9          10
 IAtWgt=          16          16          14           1          12          12          12          12          12           1
 AtmWgt=  15.9949146  15.9949146  14.0030740   1.0078250  12.0000000  12.0000000  12.0000000  12.0000000  12.0000000   1.0078250
 NucSpn=           0           0           2           1           0           0           0           0           0           1
 AtZEff=   5.6000000   5.6000000   4.5500000   1.0000000   3.6000000   3.6000000   3.6000000   3.6000000   3.6000000   1.0000000
 NQMom=    0.0000000   0.0000000   2.0440000   0.0000000   0.0000000   0.0000000   0.0000000   0.0000000   0.0000000   0.0000000
 NMagM=    0.0000000   0.0000000   0.4037610   2.7928460   0.0000000   0.0000000   0.0000000   0.0000000   0.0000000   2.7928460
 AtZNuc=   8.0000000   8.0000000   7.0000000   1.0000000   6.0000000   6.0000000   6.0000000   6.0000000   6.0000000   1.0000000

  Atom        11          12          13          14          15          16          17          18          19          20
 IAtWgt=           1          12          12          12           1           1           1          12           1           1
 AtmWgt=   1.0078250  12.0000000  12.0000000  12.0000000   1.0078250   1.0078250   1.0078250  12.0000000   1.0078250   1.0078250
 NucSpn=           1           0           0           0           1           1           1           0           1           1
 AtZEff=   1.0000000   3.6000000   3.6000000   3.6000000   1.0000000   1.0000000   1.0000000   3.6000000   1.0000000   1.0000000
 NQMom=    0.0000000   0.0000000   0.0000000   0.0000000   0.0000000   0.0000000   0.0000000   0.0000000   0.0000000   0.0000000
 NMagM=    2.7928460   0.0000000   0.0000000   0.0000000   2.7928460   2.7928460   2.7928460   0.0000000   2.7928460   2.7928460
 AtZNuc=   1.0000000   6.0000000   6.0000000   6.0000000   1.0000000   1.0000000   1.0000000   6.0000000   1.0000000   1.0000000

  Atom        21          22          23          24          25          26          27          28          29
 IAtWgt=           1          12           1           1           1          12           1           1           1
 AtmWgt=   1.0078250  12.0000000   1.0078250   1.0078250   1.0078250  12.0000000   1.0078250   1.0078250   1.0078250
 NucSpn=           1           0           1           1           1           0           1           1           1
 AtZEff=   1.0000000   3.6000000   1.0000000   1.0000000   1.0000000   3.6000000   1.0000000   1.0000000   1.0000000
 NQMom=    0.0000000   0.0000000   0.0000000   0.0000000   0.0000000   0.0000000   0.0000000   0.0000000   0.0000000
 NMagM=    2.7928460   0.0000000   2.7928460   2.7928460   2.7928460   0.0000000   2.7928460   2.7928460   2.7928460
 AtZNuc=   1.0000000   6.0000000   1.0000000   1.0000000   1.0000000   6.0000000   1.0000000   1.0000000   1.0000000
 Leave Link  101 at Wed Jan 21 04:24:07 2026, MaxMem=  2147483648 cpu:               6.7 elap:               0.2
 (Enter /data/home/wyx/g16/l202.exe)
                          Input orientation:                          
 ---------------------------------------------------------------------
 Center     Atomic      Atomic             Coordinates (Angstroms)
 Number     Number       Type             X           Y           Z
 ---------------------------------------------------------------------
      1          8           0        1.347391    9.840781    0.897745
      2          8           0       -4.853539    9.744273   -0.245617
      3          7           0       -2.110744   12.921032    0.360595
      4          1           0       -2.430424   13.874461    0.321796
      5          6           0       -2.684158   10.616520    0.219316
      6          6           0       -0.779552   12.713403    0.548086
      7          6           0       -3.067025   11.931692    0.160442
      8          6           0       -3.590012    9.562110    0.021420
      9          6           0       -1.247454   10.255934    0.527986
     10          1           0       -1.194642    9.698643    1.468385
     11          1           0       -0.866043    9.566251   -0.227570
     12          6           0       -0.303386   11.437228    0.605846
     13          6           0        1.084097   11.037685    0.773888
     14          6           0       -4.431279   12.468987   -0.091183
     15          1           0       -4.438669   13.145125   -0.951211
     16          1           0       -5.143254   11.668960   -0.296561
     17          1           0       -4.805824   13.025015    0.773933
     18          6           0       -3.268610    8.091121    0.100419
     19          1           0       -3.468777    7.602642   -0.856194
     20          1           0       -2.222491    7.958489    0.358679
     21          1           0       -3.888376    7.606043    0.858044
     22          6           0        2.240521   12.011707    0.785407
     23          1           0        2.199355   12.721937   -0.037156
     24          1           0        2.265727   12.577555    1.717326
     25          1           0        3.157989   11.433040    0.713116
     26          6           0       -0.002702   13.993405    0.663387
     27          1           0        0.679715   13.982701    1.506973
     28          1           0        0.576863   14.187660   -0.238591
     29          1           0       -0.683869   14.831432    0.803296
 ---------------------------------------------------------------------
                    Distance matrix (angstroms):
                    1          2          3          4          5
     1  O    0.000000
     2  O    6.306197   0.000000
     3  N    4.662099   4.240543   0.000000
     4  H    5.556454   4.822022   1.006344   0.000000
     5  C    4.161180   2.383945   2.378978   3.269413   0.000000
     6  C    3.591393   5.103241   1.360270   2.030921   2.851759
     7  C    4.939897   2.853300   1.390441   2.050767   1.371032
     8  C    5.022305   1.304221   3.685868   4.475628   1.404107
     9  C    2.653732   3.723454   2.806428   3.812568   1.513083
    10  H    2.609169   4.040720   3.528489   4.503252   2.149728
    11  H    2.498197   3.991509   3.626261   4.616250   2.146699
    12  C    2.314932   4.928994   2.351248   3.247319   2.547752
    13  C    1.231764   6.161804   3.731597   4.539113   3.832059
    14  C    6.424832   2.761561   2.406933   2.479784   2.565243
    15  H    6.914898   3.497967   2.681471   2.487072   3.292762
    16  H    6.848144   1.947036   3.345991   3.550500   2.724135
    17  H    6.929410   3.435844   2.728574   2.562911   3.257286
    18  C    5.000450   2.316172   4.973568   5.847955   2.594872
    19  H    5.592946   2.622394   5.622285   6.465412   3.294816
    20  H    4.071569   3.236760   4.963801   5.919741   2.701424
    21  H    5.692880   2.592612   5.626414   6.458038   3.304707
    22  C    2.350153   7.518640   4.465518   5.050002   5.149705
    23  H    3.146576   7.658541   4.332990   4.784560   5.324214
    24  H    3.000831   7.909778   4.594802   5.067870   5.530918
    25  H    2.418190   8.243524   5.486159   6.110976   5.919562
    26  C    4.372866   6.512452   2.384431   2.454520   4.334831
    27  H    4.239393   7.186984   3.198122   3.330064   4.929997
    28  H    4.558545   7.016623   3.030941   3.075046   4.857672
    29  H    5.389019   6.660747   2.425198   2.048924   4.701879
                    6          7          8          9         10
     6  C    0.000000
     7  C    2.448238   0.000000
     8  C    4.255198   2.430589   0.000000
     9  C    2.501698   2.500818   2.495111   0.000000
    10  H    3.179313   3.194220   2.801812   1.094401   0.000000
    11  H    3.242482   3.254257   2.735329   1.091788   1.732561
    12  C    1.363339   2.842636   3.828777   1.514194   2.135647
    13  C    2.516388   4.290382   4.958914   2.471383   2.732766
    14  C    3.715308   1.487680   3.028257   3.926540   4.536836
    15  H    3.977865   2.142335   3.808441   4.551846   5.315674
    16  H    4.565763   2.142104   2.636757   4.225374   4.752760
    17  H    4.044623   2.143630   3.746490   4.515562   4.958594
    18  C    5.268900   3.846326   1.507763   2.992373   2.959189
    19  H    5.943384   4.464933   2.150446   3.726954   3.868925
    20  H    4.972641   4.066802   2.134352   2.501523   2.305658
    21  H    5.987152   4.457859   2.148292   3.755706   3.465212
    22  C    3.109589   5.344813   6.370190   3.913435   4.197269
    23  H    3.035864   5.329005   6.595810   4.275634   4.788129
    24  H    3.264859   5.592787   6.801374   4.375717   4.508244
    25  H    4.143766   6.269361   7.036642   4.563746   4.745941
    26  C    1.501731   3.727424   5.737360   3.941629   4.529208
    27  H    2.158713   4.478598   6.322899   4.308270   4.676308
    28  H    2.152245   4.304246   6.231065   4.401618   5.118913
    29  H    2.135493   3.808042   6.068175   4.618290   5.200841
                   11         12         13         14         15
    11  H    0.000000
    12  C    2.124081   0.000000
    13  C    2.640280   1.453610   0.000000
    14  C    4.599499   4.311598   5.763363   0.000000
    15  H    5.108390   4.737289   6.157777   1.094013   0.000000
    16  H    4.766622   4.928729   6.350140   1.090473   1.761837
    17  H    5.337409   4.777161   6.216161   1.094476   1.767867
    18  C    2.838294   4.499382   5.299231   4.533676   5.293195
    19  H    3.320415   5.182790   5.931724   5.019259   5.627506
    20  H    2.183699   3.980664   4.537331   5.042392   5.790375
    21  H    3.762376   5.252974   6.042246   4.984375   5.853003
    22  C    4.081312   2.614140   1.512008   6.744659   6.993716
    23  H    4.403553   2.885765   2.176763   6.635677   6.714012
    24  H    4.760100   3.022594   2.158130   6.937751   7.238243
    25  H    4.534602   3.463039   2.112114   7.701757   7.963066
    26  C    4.597701   2.574444   3.151131   4.743999   4.796281
    27  H    4.990294   2.873664   3.061708   5.564862   5.739517
    28  H    4.841438   3.008785   3.347349   5.296891   5.172066
    29  H    5.368240   3.421165   4.185580   4.519328   4.474422
                   16         17         18         19         20
    16  H    0.000000
    17  H    1.760313   0.000000
    18  C    4.058672   5.211521   0.000000
    19  H    4.433058   5.817829   1.092606   0.000000
    20  H    4.767368   5.702257   1.085658   1.776449   0.000000
    21  H    4.406260   5.496730   1.092431   1.764847   1.774473
    22  C    7.470493   7.118842   6.796375   7.398026   6.043935
    23  H    7.422262   7.058489   7.166730   7.681519   6.511517
    24  H    7.731384   7.148220   7.305571   8.016065   6.582234
    25  H    8.365748   8.121601   7.269456   7.813367   6.414647
    26  C    5.722747   4.901019   6.769050   7.427291   6.437432
    27  H    6.520207   5.616551   7.230378   7.968669   6.784726
    28  H    6.250356   5.599131   7.215981   7.753135   6.855341
    29  H    5.576472   4.500502   7.253048   7.922437   7.057081
                   21         22         23         24         25
    21  H    0.000000
    22  C    7.548412   0.000000
    23  H    8.002139   1.087534   0.000000
    24  H    7.957844   1.090547   1.761663   0.000000
    25  H    8.019861   1.087119   1.772891   1.764790   0.000000
    26  C    7.478954   2.995675   2.637508   2.874228   4.067912
    27  H    7.870853   2.615644   2.506624   2.129347   3.643188
    28  H    8.028615   2.924227   2.195769   3.044719   3.893056
    29  H    7.904309   4.062416   3.670055   3.823026   5.130016
                   26         27         28         29
    26  C    0.000000
    27  H    1.085101   0.000000
    28  H    1.089585   1.760562   0.000000
    29  H    1.088968   1.753529   1.757673   0.000000
 Symmetry turned off by external request.
 Stoichiometry    C11H15NO2
 Framework group  C1[X(C11H15NO2)]
 Deg. of freedom    81
 Full point group                 C1      NOp   1
 Rotational constants (GHZ):           1.1004966           0.4797879           0.3380921
 Leave Link  202 at Wed Jan 21 04:24:07 2026, MaxMem=  2147483648 cpu:               0.1 elap:               0.0
 (Enter /data/home/wyx/g16/l301.exe)
 Standard basis: TZVP (5D, 7F)
 Ernie: Thresh=  0.10000D-02 Tol=  0.10000D-05 Strict=F.
   356 basis functions,   610 primitive gaussians,   370 cartesian basis functions
    52 alpha electrons       52 beta electrons
       nuclear repulsion energy       897.3866049409 Hartrees.
 IExCor=20419 DFT=T Ex+Corr=CAM-B3LYP ExCW=0 ScaHFX=  1.000000
 ScaDFX=  1.000000  1.000000  1.000000  0.810000 ScalE2=  1.000000  1.000000
 IRadAn=      5 IRanWt=     -1 IRanGd=            0 ICorTp=0 IEmpDi=141
 HFx  wShort=  0.000000 wLong=  0.330000 cFull=  0.190000 cShort=  0.000000 cLong=  0.460000
 DFx  wShort=  0.000000 wLong=  0.330000 cFull=  0.190000 cShort=  0.000000 cLong=  0.460000
 NAtoms=   29 NActive=   29 NUniq=   29 SFac= 1.00D+00 NAtFMM=   60 NAOKFM=F Big=F
 Integral buffers will be    131072 words long.
 Raffenetti 1 integral format.
 Two-electron integral symmetry is turned off.
 R6Disp:  Grimme-D3(BJ) Dispersion energy=       -0.0260419373 Hartrees.
 Nuclear repulsion after empirical dispersion term =      897.3605630036 Hartrees.
 ------------------------------------------------------------------------------
 Polarizable Continuum Model (PCM)
 =================================
 Model                : PCM.
 Atomic radii         : UFF (Universal Force Field).
 Polarization charges : Total charges.
 Charge compensation  : None.
 Solution method      : On-the-fly selection.
 Cavity type          : Scaled VdW (van der Waals Surface) (Alpha=1.100).
 Cavity algorithm     : GePol (No added spheres)
                        Default sphere list used, NSphG=   29.
                        Lebedev-Laikov grids with approx.  5.0 points / Ang**2.
                        Smoothing algorithm: York/Karplus (Gamma=1.0000).
                        Polarization charges: spherical gaussians, with
                                              point-specific exponents (IZeta= 3).
                        Self-potential: point-specific (ISelfS= 7).
                        Self-field    : sphere-specific E.n sum rule (ISelfD= 2).
 Solvent              : TetraHydroFuran, Eps=   7.425700 Eps(inf)=   1.974025
 ------------------------------------------------------------------------------
 GePol: Number of generator spheres                  =      29
 GePol: Total number of spheres                      =      29
 GePol: Number of exposed spheres                    =      29 (100.00%)
 GePol: Number of points                             =    2105
 GePol: Average weight of points                     =       0.13
 GePol: Minimum weight of points                     =   0.46D-09
 GePol: Maximum weight of points                     =    0.20577
 GePol: Number of points with low weight             =     128
 GePol: Fraction of low-weight points (<1% of avg)   =       6.08%
 GePol: Cavity surface area                          =    268.413 Ang**2
 GePol: Cavity volume                                =    285.761 Ang**3
 Leave Link  301 at Wed Jan 21 04:24:07 2026, MaxMem=  2147483648 cpu:               1.1 elap:               0.1
 (Enter /data/home/wyx/g16/l302.exe)
 NPDir=0 NMtPBC=     1 NCelOv=     1 NCel=       1 NClECP=     1 NCelD=      1
         NCelK=      1 NCelE2=     1 NClLst=     1 CellRange=     0.0.
 One-electron integrals computed using PRISM.
 NBasis=   356 RedAO= T EigKep=  3.68D-05  NBF=   356
 NBsUse=   356 1.00D-06 EigRej= -1.00D+00 NBFU=   356
 Precomputing XC quadrature grid using
 IXCGrd= 4 IRadAn=           5 IRanWt=          -1 IRanGd=           0 AccXCQ= 0.00D+00.
 Generated NRdTot=       0 NPtTot=           0 NUsed=           0 NTot=          32
 NSgBfM=   366   366   366   366   366 MxSgAt=    29 MxSgA2=    29.
 Leave Link  302 at Wed Jan 21 04:24:08 2026, MaxMem=  2147483648 cpu:               6.3 elap:               0.2
 (Enter /data/home/wyx/g16/l303.exe)
 DipDrv:  MaxL=1.
 Leave Link  303 at Wed Jan 21 04:24:08 2026, MaxMem=  2147483648 cpu:               1.1 elap:               0.1
 (Enter /data/home/wyx/g16/l308.exe)
 Leave Link  308 at Wed Jan 21 04:24:08 2026, MaxMem=  2147483648 cpu:               1.4 elap:               0.1
 (Enter /data/home/wyx/g16/l401.exe)
 Initial guess from the checkpoint file:  "DDL-S2-TD-Neq.chk"
 B after Tr=     0.000000    0.000000    0.000000
         Rot=    1.000000    0.000000    0.000000    0.000000 Ang=   0.00 deg.
 Guess basis will be translated and rotated to current coordinates.
 JPrj=2 DoOrth=T DoCkMO=T.
 Leave Link  401 at Wed Jan 21 04:24:09 2026, MaxMem=  2147483648 cpu:               4.5 elap:               0.2
 (Enter /data/home/wyx/g16/l502.exe)
 Two-electron integral symmetry not used.
 Closed shell SCF:
 Using DIIS extrapolation, IDIIS=  1040.
 NGot=  2147483648 LenX=  2147195087 LenY=  2147057746
 Requested convergence on RMS density matrix=1.00D-08 within 128 cycles.
 Requested convergence on MAX density matrix=1.00D-06.
 Requested convergence on             energy=1.00D-06.
 No special actions if energy rises.
 Fock matrices will be formed incrementally for  20 cycles.

 Cycle   1  Pass 1  IDiag  1:
 FoFJK:  IHMeth= 1 ICntrl=       0 DoSepK=T KAlg= 0 I1Cent=           0 FoldK=F
 IRaf=         1 NMat=       1 IRICut=       1 DoRegI=T DoRafI=F ISym2E= 0 IDoP0=0 IntGTp=1.
 FoFCou: FMM=F IPFlag=           0 FMFlag=      100000 FMFlg1=           0
         NFxFlg=           0 DoJE=T BraDBF=F KetDBF=F FulRan=T
         wScrn=  0.000000 ICntrl=       500 IOpCl=  0 I1Cent=           0 NGrid=           0
         NMat0=    1 NMatS0=      1 NMatT0=    0 NMatD0=    1 NMtDS0=    0 NMtDT0=    0
 Symmetry not used in FoFCou.
 Inv3:  Mode=1 IEnd=    13293075.
 Iteration    1 A*A^-1 deviation from unit magnitude is 3.89D-15 for    489.
 Iteration    1 A*A^-1 deviation from orthogonality  is 1.70D-15 for   1776    653.
 Iteration    1 A^-1*A deviation from unit magnitude is 3.44D-15 for    489.
 Iteration    1 A^-1*A deviation from orthogonality  is 1.96D-15 for   1348    929.
 E= -633.311672276701    
 DIIS: error= 8.42D-09 at cycle   1 NSaved=   1.
 NSaved= 1 IEnMin= 1 EnMin= -633.311672276701     IErMin= 1 ErrMin= 8.42D-09
 ErrMax= 8.42D-09  0.00D+00 EMaxC= 1.00D-01 BMatC= 2.75D-14 BMatP= 2.75D-14
 IDIUse=1 WtCom= 1.00D+00 WtEn= 0.00D+00
 Coeff-Com:  0.100D+01
 Coeff:      0.100D+01
 Gap=     0.225 Goal=   None    Shift=    0.000
 RMSDP=2.52D-09 MaxDP=2.21D-07              OVMax= 9.18D-08

 Error on total polarization charges =  0.01473
 SCF Done:  E(RCAM-B3LYP) =  -633.311672277     A.U. after    1 cycles
            NFock=  1  Conv=0.25D-08     -V/T= 2.0044
 KE= 6.305363082544D+02 PE=-3.270586601280D+03 EE= 1.109378057745D+03
 Leave Link  502 at Wed Jan 21 04:24:13 2026, MaxMem=  2147483648 cpu:             120.1 elap:               4.1
 (Enter /data/home/wyx/g16/l801.exe)
 DoSCS=F DFT=T ScalE2(SS,OS)=  1.000000  1.000000
 ExpMin= 9.52D-02 ExpMax= 2.70D+04 ExpMxC= 9.22D+02 IAcc=3 IRadAn=         5 AccDes= 0.00D+00
 HarFok:  IExCor=  205 AccDes= 0.00D+00 IRadAn=         5 IDoV=-2 UseB2=F ITyADJ=14
 ICtDFT= 12500011 ScaDFX=  1.000000  1.000000  1.000000  1.000000
 Largest valence mixing into a core orbital is  5.64D-05
 Largest core mixing into a valence orbital is  1.29D-05
 Range of M.O.s used for correlation:    15   356
 NBasis=   356 NAE=    52 NBE=    52 NFC=    14 NFV=     0
 NROrb=    342 NOA=    38 NOB=    38 NVA=   304 NVB=   304

 **** Warning!!: The largest alpha MO coefficient is  0.45838361D+02

 Leave Link  801 at Wed Jan 21 04:24:13 2026, MaxMem=  2147483648 cpu:               1.6 elap:               0.1
 (Enter /data/home/wyx/g16/l914.exe)
 RHF ground state
 Two-electron integral symmetry not used.
 MDV=  2147483648 DFT=T DoStab=F Mixed=T DoRPA=T DoScal=F NonHer=T
 NEqPCM:  Using non-equilibrium solvation (IEInf=1, Eps=   7.4257, EpsInf=   1.9740)
 Inv3:  Mode=1 IEnd=    13293075.
 Iteration    1 A*A^-1 deviation from unit magnitude is 3.22D-15 for    855.
 Iteration    1 A*A^-1 deviation from orthogonality  is 1.69D-15 for    687    634.
 Iteration    1 A^-1*A deviation from unit magnitude is 3.33D-15 for    489.
 Iteration    1 A^-1*A deviation from orthogonality  is 1.63D-15 for    704    610.
 Making orbital integer symmetry assigments:
    24 initial guesses have been made.
 Convergence on wavefunction:    0.001000000000000
 Davidson Disk Diagonalization:  ConvIn= 1.00D-03 SkipCon=T Conv= 1.00D-03.
 Max sub-space:  2000 roots to seek:    24 dimension of matrix:        23104
 Iteration     1 Dimension    24 NMult     0 NNew     24
 CISAX will form    24 AO SS matrices at one time.
 NMat=    24 NSing=    24 JSym2X= 0.
 FoFJK:  IHMeth= 1 ICntrl=       0 DoSepK=T KAlg= 0 I1Cent=           0 FoldK=F
 IRaf=         1 NMat=      48 IRICut=       1 DoRegI=T DoRafI=F ISym2E= 0 IDoP0=3 IntGTp=3.
 New state      1 was old state      2
 New state      2 was old state      1
 New state      3 was old state      4
 New state      4 was old state      3
 New state      6 was old state      7
 Excitation Energies [eV] at current iteration:
 Root      1 :     3.492467333094260
 Root      2 :     3.675562671734555
 Root      3 :     4.419457172552800
 Root      4 :     5.412892005687404
 Root      5 :     6.272784696581004
 Root      6 :     6.292071275686728
 Root      7 :     6.469850758501572
 Root      8 :     6.576196549325779
 Root      9 :     6.873054536965870
 Root     10 :     6.991115404674932
 Root     11 :     7.149169214052958
 Root     12 :     7.244700401355725
 Root     13 :     7.493024323381443
 Root     14 :     7.592731653437792
 Root     15 :     7.643801824249673
 Root     16 :     7.670997135394441
 Root     17 :     7.778829940028979
 Root     18 :     8.195861146048802
 Root     19 :     8.251228624848684
 Root     20 :     8.303568019802244
 Root     21 :     8.375350840575431
 Root     22 :     8.492793639796815
 Root     23 :     8.669192642619777
 Root     24 :     8.946906696767739
 Iteration     2 Dimension    36 NMult    24 NNew     12
 CISAX will form    12 AO SS matrices at one time.
 NMat=    12 NSing=    12 JSym2X= 0.
 New state      1 was old state      2
 Root      1 not converged, maximum delta is    0.054356585882936
 New state      2 was old state      1
 Root      2 not converged, maximum delta is    0.061397476180687
 Root      3 not converged, maximum delta is    0.092740109422936
 Root      4 not converged, maximum delta is    0.331450647790734
 Root      5 not converged, maximum delta is    0.290577290067941
 Root      6 not converged, maximum delta is    0.190431803930759
 Excitation Energies [eV] at current iteration:
 Root      1 :     3.226889484269454   Change is   -0.448673187465102
 Root      2 :     3.294860896704093   Change is   -0.197606436390167
 Root      3 :     4.185099814040448   Change is   -0.234357358512353
 Root      4 :     5.101300975907616   Change is   -0.311591029779788
 Root      5 :     5.360539420616705   Change is   -0.912245275964299
 Root      6 :     6.140124723961693   Change is   -0.151946551725034
 Iteration     3 Dimension    48 NMult    36 NNew     12
 CISAX will form    12 AO SS matrices at one time.
 NMat=    12 NSing=    12 JSym2X= 0.
 Root      1 not converged, maximum delta is    0.008363221685687
 Root      2 not converged, maximum delta is    0.011925718971999
 Root      3 not converged, maximum delta is    0.018419244054965
 Root      4 not converged, maximum delta is    0.041527909772118
 Root      5 not converged, maximum delta is    0.041129233402632
 Root      6 not converged, maximum delta is    0.015230889934925
 Excitation Energies [eV] at current iteration:
 Root      1 :     3.209663163326698   Change is   -0.017226320942755
 Root      2 :     3.287366273834432   Change is   -0.007494622869661
 Root      3 :     4.172153007794666   Change is   -0.012946806245782
 Root      4 :     5.076758854887553   Change is   -0.024542121020064
 Root      5 :     5.334197747297107   Change is   -0.026341673319598
 Root      6 :     6.131962100198185   Change is   -0.008162623763508
 Iteration     4 Dimension    60 NMult    48 NNew     12
 CISAX will form    12 AO SS matrices at one time.
 NMat=    12 NSing=    12 JSym2X= 0.
 Root      1 not converged, maximum delta is    0.002113221824395
 Root      2 not converged, maximum delta is    0.001410980526235
 Root      3 not converged, maximum delta is    0.002055629362763
 Root      4 not converged, maximum delta is    0.004962655788854
 Root      5 not converged, maximum delta is    0.004860969652850
 Root      6 not converged, maximum delta is    0.003702899465516
 Excitation Energies [eV] at current iteration:
 Root      1 :     3.208289763485351   Change is   -0.001373399841348
 Root      2 :     3.287129420107643   Change is   -0.000236853726789
 Root      3 :     4.171629364023084   Change is   -0.000523643771581
 Root      4 :     5.073907906492115   Change is   -0.002850948395438
 Root      5 :     5.331040909233799   Change is   -0.003156838063308
 Root      6 :     6.131348620103840   Change is   -0.000613480094344
 Iteration     5 Dimension    72 NMult    60 NNew     12
 CISAX will form    12 AO SS matrices at one time.
 NMat=    12 NSing=    12 JSym2X= 0.
 Root      1 has converged.
 Root      2 has converged.
 Root      3 has converged.
 Root      4 has converged.
 Root      5 not converged, maximum delta is    0.001225846500129
 Root      6 has converged.
 Excitation Energies [eV] at current iteration:
 Root      1 :     3.208212145927859   Change is   -0.000077617557492
 Root      2 :     3.287117536659498   Change is   -0.000011883448145
 Root      3 :     4.171597501414354   Change is   -0.000031862608730
 Root      4 :     5.073729485061943   Change is   -0.000178421430173
 Root      5 :     5.330776904799095   Change is   -0.000264004434704
 Root      6 :     6.131304246631390   Change is   -0.000044373472450
 Iteration     6 Dimension    74 NMult    72 NNew      2
 CISAX will form     2 AO SS matrices at one time.
 NMat=     2 NSing=     2 JSym2X= 0.
 Root      1 has converged.
 Root      2 has converged.
 Root      3 has converged.
 Root      4 has converged.
 Root      5 has converged.
 Root      6 has converged.
 Excitation Energies [eV] at current iteration:
 Root      1 :     3.208211548709067   Change is   -0.000000597218793
 Root      2 :     3.287117467572640   Change is   -0.000000069086857
 Root      3 :     4.171597406928348   Change is   -0.000000094486005
 Root      4 :     5.073722210935067   Change is   -0.000007274126876
 Root      5 :     5.330756589599620   Change is   -0.000020315199476
 Root      6 :     6.131304018204139   Change is   -0.000000228427251
 Convergence achieved on expansion vectors.
 ***********************************************************************
 Excited states from <AA,BB:AA,BB> singles matrix:
 ***********************************************************************
 
 1PDM for each excited state written to RWF  633
 Ground to excited state transition densities written to RWF  633
 Ground to excited state transition electric dipole moments (Au):
       state          X           Y           Z        Dip. S.      Osc.
         1         1.4809      0.5462      0.2527      2.5553      0.2008
         2        -0.0520     -0.0328     -0.0500      0.0063      0.0005
         3        -0.0217      0.0408      0.0323      0.0032      0.0003
         4        -0.5482      1.2452     -0.0486      1.8534      0.2304
         5        -0.1757      1.3452     -0.0001      1.8404      0.2404
         6        -0.0342     -0.0154      0.0394      0.0030      0.0004
 Ground to excited state transition velocity dipole moments (Au):
       state          X           Y           Z        Dip. S.      Osc.
         1        -0.1704     -0.0637     -0.0293      0.0340      0.1920
         2         0.0060      0.0039      0.0051      0.0001      0.0004
         3         0.0023     -0.0059     -0.0013      0.0000      0.0002
         4         0.0897     -0.2186      0.0086      0.0559      0.1998
         5         0.0359     -0.2578      0.0003      0.0677      0.2305
         6         0.0108      0.0030     -0.0279      0.0009      0.0027
 Ground to excited state transition magnetic dipole moments (Au):
       state          X           Y           Z
         1        -0.8420     -0.2186      5.1643
         2        -0.6235      0.0270     -0.3281
         3        -0.3340      0.8605     -0.1093
         4         0.4198      0.0680     -1.7312
         5         0.3194     -0.0036     -0.3855
         6        -0.6598     -0.0847     -0.2594
 Ground to excited state transition velocity quadrupole moments (Au):
       state          XX          YY          ZZ          XY          XZ          YZ
         1         0.9941     -2.4667     -0.0492     -2.9160     -0.0141     -0.5763
         2        -0.0218      0.1530     -0.0035      0.0963     -0.0396      0.0776
         3         0.0154     -0.2608     -0.0155      0.0568     -0.0571     -0.0518
         4         0.6745     -9.4981      0.0212      2.8068      0.2606      0.0615
         5         0.4739    -11.2138     -0.0029      1.9861      0.1816     -0.0863
         6         0.0158      0.1747     -0.0855      0.2102      0.1109     -0.5724
 <0|del|b> * <b|rxdel|0> + <0|del|b> * <b|delr+rdel|0>
 Rotatory Strengths (R) in cgs (10**-40 erg-esu-cm/Gauss)
       state          XX          YY          ZZ    R(velocity)    E-M Angle
         1      -158.5046     14.9677    180.3021     12.2550       89.64
         2        -2.7234    -16.0296    -12.5503    -10.4345      149.26
         3       -12.4151     -1.5366    -12.4906     -8.8141      161.81
         4        97.4575      7.3989    -75.2606      9.8653       88.94
         5        87.0919     13.7653    -56.5107     14.7822       84.59
         6         1.2246     -0.2347     -1.3513     -0.1205       90.31
 1/2[<0|r|b>*<b|rxdel|0> + (<0|rxdel|b>*<b|r|0>)*]
 Rotatory Strengths (R) in cgs (10**-40 erg-esu-cm/Gauss)
       state          XX          YY          ZZ     R(length)
         1       881.8479     84.4340   -922.7452     14.5122
         2       -22.9062      0.6254    -11.5957    -11.2922
         3        -5.1360    -24.8485      2.4996     -9.1617
         4       162.7453    -59.8731    -59.4672     14.4684
         5        39.6729      3.4650     -0.0213     14.3722
         6       -15.9363     -0.9199      7.2318     -3.2081
  1/2[<0|del|b>*<b|r|0> + (<0|r|b>*<b|del|0>)*] (Au)
       state          X           Y           Z        Dip. S.   Osc.(frdel)
         1        -0.2524     -0.0348     -0.0074      0.2946      0.1964
         2        -0.0003     -0.0001     -0.0003      0.0007      0.0005
         3        -0.0000     -0.0002     -0.0000      0.0003      0.0002
         4        -0.0491     -0.2722     -0.0004      0.3217      0.2145
         5        -0.0063     -0.3468     -0.0000      0.3531      0.2354
         6        -0.0004     -0.0000     -0.0011      0.0015      0.0010

 Excitation energies and oscillator strengths:
 
 Excited state symmetry could not be determined.
 Excited State   1:      Singlet-?Sym    3.2082 eV  386.46 nm  f=0.2008  <S**2>=0.000
      52 -> 53         0.70014
 This state for optimization and/or second-order correction.
 Total Energy, E(TD-HF/TD-DFT) =  -633.193772672    
 Copying the excited state density for this state as the 1-particle RhoCI density.
 
 Excited state symmetry could not be determined.
 Excited State   2:      Singlet-?Sym    3.2871 eV  377.18 nm  f=0.0005  <S**2>=0.000
      51 -> 53         0.63784
      51 -> 54         0.26523
 
 Excited state symmetry could not be determined.
 Excited State   3:      Singlet-?Sym    4.1716 eV  297.21 nm  f=0.0003  <S**2>=0.000
      50 -> 53         0.52466
      50 -> 54        -0.43251
      50 -> 58         0.11902
 
 Excited state symmetry could not be determined.
 Excited State   4:      Singlet-?Sym    5.0737 eV  244.37 nm  f=0.2304  <S**2>=0.000
      52 -> 54         0.69960
 
 Excited state symmetry could not be determined.
 Excited State   5:      Singlet-?Sym    5.3308 eV  232.58 nm  f=0.2404  <S**2>=0.000
      49 -> 53         0.69301
 
 Excited state symmetry could not be determined.
 Excited State   6:      Singlet-?Sym    6.1313 eV  202.22 nm  f=0.0004  <S**2>=0.000
      52 -> 55         0.66385
      52 -> 57         0.14591
      52 -> 61        -0.10222
 SavETr:  write IOETrn=   770 NScale= 10 NData=  16 NLR=1 NState=    6 LETran=     118.
 Leave Link  914 at Wed Jan 21 04:26:16 2026, MaxMem=  2147483648 cpu:            3900.5 elap:             122.7
 (Enter /data/home/wyx/g16/l601.exe)
 Copying SCF densities to generalized density rwf, IOpCl= 0 IROHF=0.

 **********************************************************************

            Population analysis using the SCF density.

 **********************************************************************

 Alpha  occ. eigenvalues --  -19.17662 -19.16150 -14.44765 -10.33283 -10.33232
 Alpha  occ. eigenvalues --  -10.32880 -10.32577 -10.26185 -10.25502 -10.25301
 Alpha  occ. eigenvalues --  -10.25207 -10.24227 -10.24217 -10.23965  -1.11663
 Alpha  occ. eigenvalues --   -1.08286  -1.07224  -0.91587  -0.90622  -0.83938
 Alpha  occ. eigenvalues --   -0.82542  -0.81540  -0.78815  -0.74448  -0.71791
 Alpha  occ. eigenvalues --   -0.69320  -0.62092  -0.58480  -0.56924  -0.55208
 Alpha  occ. eigenvalues --   -0.54802  -0.54061  -0.52277  -0.51847  -0.50699
 Alpha  occ. eigenvalues --   -0.49529  -0.49386  -0.49035  -0.48497  -0.48051
 Alpha  occ. eigenvalues --   -0.46555  -0.45789  -0.44565  -0.43870  -0.43027
 Alpha  occ. eigenvalues --   -0.42428  -0.41492  -0.40267  -0.32891  -0.32101
 Alpha  occ. eigenvalues --   -0.30287  -0.26333
 Alpha virt. eigenvalues --   -0.03838   0.01792   0.06294   0.08266   0.08534
 Alpha virt. eigenvalues --    0.09976   0.10935   0.11168   0.12682   0.13067
 Alpha virt. eigenvalues --    0.14837   0.15059   0.15253   0.16489   0.17119
 Alpha virt. eigenvalues --    0.17393   0.17538   0.17801   0.18614   0.19540
 Alpha virt. eigenvalues --    0.19786   0.20017   0.22227   0.22934   0.24217
 Alpha virt. eigenvalues --    0.24510   0.24857   0.25497   0.25775   0.26291
 Alpha virt. eigenvalues --    0.27329   0.27816   0.28446   0.29180   0.29649
 Alpha virt. eigenvalues --    0.30832   0.31226   0.33524   0.33863   0.34686
 Alpha virt. eigenvalues --    0.35420   0.35810   0.36810   0.37012   0.37523
 Alpha virt. eigenvalues --    0.39981   0.40759   0.41183   0.42267   0.42823
 Alpha virt. eigenvalues --    0.44070   0.45074   0.45391   0.46218   0.46517
 Alpha virt. eigenvalues --    0.47452   0.47871   0.48189   0.48558   0.49021
 Alpha virt. eigenvalues --    0.49259   0.49831   0.50605   0.51505   0.51846
 Alpha virt. eigenvalues --    0.52027   0.53010   0.53021   0.53763   0.54056
 Alpha virt. eigenvalues --    0.54625   0.55527   0.55803   0.57681   0.57850
 Alpha virt. eigenvalues --    0.58475   0.59143   0.60995   0.62399   0.63064
 Alpha virt. eigenvalues --    0.63166   0.65094   0.65744   0.67038   0.67449
 Alpha virt. eigenvalues --    0.67788   0.68854   0.71056   0.71518   0.71675
 Alpha virt. eigenvalues --    0.73444   0.75682   0.77085   0.77606   0.78622
 Alpha virt. eigenvalues --    0.80389   0.81799   0.84566   0.88152   0.90843
 Alpha virt. eigenvalues --    0.93877   0.96769   1.00903   1.03300   1.19917
 Alpha virt. eigenvalues --    1.22160   1.23605   1.26850   1.29888   1.31370
 Alpha virt. eigenvalues --    1.31645   1.33254   1.34139   1.35096   1.36786
 Alpha virt. eigenvalues --    1.37560   1.38033   1.39355   1.39501   1.39798
 Alpha virt. eigenvalues --    1.40401   1.40599   1.41050   1.41190   1.41857
 Alpha virt. eigenvalues --    1.42641   1.43052   1.44184   1.44738   1.45873
 Alpha virt. eigenvalues --    1.48374   1.49689   1.50084   1.50785   1.51306
 Alpha virt. eigenvalues --    1.51808   1.52698   1.54779   1.57463   1.57779
 Alpha virt. eigenvalues --    1.59330   1.59784   1.59892   1.60843   1.61603
 Alpha virt. eigenvalues --    1.61982   1.62544   1.62806   1.63685   1.64876
 Alpha virt. eigenvalues --    1.65263   1.65837   1.66141   1.66844   1.67821
 Alpha virt. eigenvalues --    1.68579   1.68880   1.69516   1.71193   1.72636
 Alpha virt. eigenvalues --    1.72793   1.74076   1.75709   1.76173   1.80240
 Alpha virt. eigenvalues --    1.81882   1.82897   1.84225   1.84650   1.85621
 Alpha virt. eigenvalues --    1.85900   1.86353   1.89749   1.90119   1.91005
 Alpha virt. eigenvalues --    1.91384   1.92633   1.97059   1.98376   2.01274
 Alpha virt. eigenvalues --    2.02261   2.04637   2.06424   2.07903   2.09825
 Alpha virt. eigenvalues --    2.10215   2.13251   2.15057   2.18669   2.19899
 Alpha virt. eigenvalues --    2.20291   2.23357   2.24280   2.24827   2.26491
 Alpha virt. eigenvalues --    2.27494   2.29096   2.29946   2.31508   2.32896
 Alpha virt. eigenvalues --    2.33512   2.34208   2.35571   2.38129   2.38658
 Alpha virt. eigenvalues --    2.39976   2.41582   2.42453   2.43742   2.45451
 Alpha virt. eigenvalues --    2.46652   2.47719   2.49319   2.49923   2.50737
 Alpha virt. eigenvalues --    2.52814   2.54281   2.55320   2.55923   2.57273
 Alpha virt. eigenvalues --    2.57845   2.58471   2.61484   2.62627   2.63074
 Alpha virt. eigenvalues --    2.63744   2.64824   2.65359   2.66217   2.68053
 Alpha virt. eigenvalues --    2.68683   2.71267   2.73366   2.74459   2.75356
 Alpha virt. eigenvalues --    2.76380   2.76687   2.77273   2.78316   2.78966
 Alpha virt. eigenvalues --    2.80525   2.81117   2.83103   2.83918   2.84663
 Alpha virt. eigenvalues --    2.85538   2.88173   2.89095   2.91358   2.92971
 Alpha virt. eigenvalues --    2.98089   2.98870   2.99560   3.03840   3.08486
 Alpha virt. eigenvalues --    3.11262   3.12666   3.15140   3.17617   3.20063
 Alpha virt. eigenvalues --    3.21407   3.22154   3.25396   3.25963   3.26670
 Alpha virt. eigenvalues --    3.29722   3.31170   3.31267   3.35630   3.37639
 Alpha virt. eigenvalues --    3.38547   3.39392   3.39759   3.40293   3.41331
 Alpha virt. eigenvalues --    3.42372   3.43950   3.45124   3.46575   3.49249
 Alpha virt. eigenvalues --    3.51266   3.52538   3.54794   3.56680   3.59849
 Alpha virt. eigenvalues --    3.62886   3.92097   3.99910   4.27895   4.36143
 Alpha virt. eigenvalues --   21.64442  21.75955  22.04592  22.10162  22.11939
 Alpha virt. eigenvalues --   22.12766  22.15849  22.19120  22.20506  22.26512
 Alpha virt. eigenvalues --   22.30827  31.92734  43.64743  43.68259
          Condensed to atoms (all electrons):
               1          2          3          4          5          6
     1  O    7.930615   0.000000  -0.000225   0.000018   0.018063   0.017839
     2  O    0.000000   8.123355   0.000814   0.000014  -0.184174   0.001786
     3  N   -0.000225   0.000814   6.346630   0.370289  -0.087972   0.384671
     4  H    0.000018   0.000014   0.370289   0.399821   0.010969  -0.041133
     5  C    0.018063  -0.184174  -0.087972   0.010969   7.186874  -0.041488
     6  C    0.017839   0.001786   0.384671  -0.041133  -0.041488   5.601533
     7  C    0.000074   0.002639   0.341403  -0.043727   0.320056  -0.156747
     8  C   -0.000240   0.589195   0.004457  -0.001366  -0.481088   0.048829
     9  C   -0.000933   0.025413   0.020830   0.000968  -0.691567  -0.093170
    10  H    0.006204  -0.000120   0.001469   0.000013  -0.052324  -0.004212
    11  H    0.008411  -0.000164  -0.000630   0.000007  -0.109334   0.022465
    12  C   -0.251563  -0.004156  -0.106254   0.018202   0.219602  -0.172330
    13  C    0.735510   0.000005  -0.000614   0.000567   0.064095   0.127798
    14  C   -0.000016  -0.094136  -0.049181   0.002314   0.045343  -0.004085
    15  H    0.000000   0.003545   0.000450  -0.000309  -0.008822   0.002786
    16  H    0.000000   0.047184   0.003547   0.000674   0.012922  -0.000117
    17  H    0.000000   0.003363  -0.000252   0.000178  -0.012530   0.001284
    18  C   -0.000318  -0.082685  -0.000289   0.000010  -0.128456  -0.002333
    19  H    0.000007  -0.001171   0.000011  -0.000001  -0.004699   0.000071
    20  H    0.000886   0.007663   0.000057   0.000000   0.083213  -0.001360
    21  H    0.000002  -0.000919   0.000010  -0.000001  -0.004031   0.000047
    22  C   -0.118178   0.000000   0.000267   0.000111   0.000295  -0.005647
    23  H    0.003805  -0.000000   0.000061  -0.000051  -0.000333  -0.024711
    24  H    0.002215   0.000000   0.000107  -0.000016  -0.000085   0.008141
    25  H    0.010217  -0.000000   0.000020  -0.000002  -0.000065  -0.001685
    26  C    0.000822   0.000010  -0.027098  -0.010767   0.002247   0.200984
    27  H   -0.000117  -0.000000   0.000046   0.000874   0.000374  -0.037650
    28  H   -0.000026  -0.000000  -0.002849   0.000585   0.000477  -0.039751
    29  H    0.000018   0.000000   0.003654   0.002388  -0.000570  -0.053810
               7          8          9         10         11         12
     1  O    0.000074  -0.000240  -0.000933   0.006204   0.008411  -0.251563
     2  O    0.002639   0.589195   0.025413  -0.000120  -0.000164  -0.004156
     3  N    0.341403   0.004457   0.020830   0.001469  -0.000630  -0.106254
     4  H   -0.043727  -0.001366   0.000968   0.000013   0.000007   0.018202
     5  C    0.320056  -0.481088  -0.691567  -0.052324  -0.109334   0.219602
     6  C   -0.156747   0.048829  -0.093170  -0.004212   0.022465  -0.172330
     7  C    5.553869  -0.234604  -0.279118   0.000740   0.011351   0.060834
     8  C   -0.234604   5.776818   0.223459  -0.006620   0.001742  -0.097063
     9  C   -0.279118   0.223459   6.511296   0.437850   0.516352  -0.163139
    10  H    0.000740  -0.006620   0.437850   0.540051  -0.041655  -0.029938
    11  H    0.011351   0.001742   0.516352  -0.041655   0.521501  -0.080432
    12  C    0.060834  -0.097063  -0.163139  -0.029938  -0.080432   7.556070
    13  C    0.026542  -0.010231  -0.210046  -0.007378  -0.004051  -0.509887
    14  C    0.176617  -0.102277   0.021484  -0.000455  -0.000105   0.005147
    15  H   -0.039924   0.007167   0.000035  -0.000027   0.000057  -0.001191
    16  H   -0.060872  -0.029398   0.002416  -0.000017  -0.000006  -0.000355
    17  H   -0.029832   0.007041  -0.001197   0.000106  -0.000011  -0.000314
    18  C    0.029003   0.268551  -0.025668  -0.005324  -0.011177   0.012170
    19  H   -0.001387  -0.019649  -0.001033   0.000271   0.000261  -0.000401
    20  H    0.005856  -0.149338  -0.017148  -0.004665  -0.003195   0.005642
    21  H   -0.000889  -0.024446  -0.001755   0.000463   0.000505  -0.000280
    22  C    0.001195  -0.000048   0.018251   0.001422  -0.000052  -0.308204
    23  H   -0.000034   0.000002   0.001219  -0.000152   0.000055   0.051232
    24  H   -0.000030   0.000002  -0.002155   0.000153  -0.000117   0.003323
    25  H    0.000012  -0.000001  -0.000029  -0.000072  -0.000037   0.025153
    26  C    0.004269   0.000891   0.018554  -0.000323   0.000053  -0.090701
    27  H   -0.001121  -0.000001  -0.000473  -0.000029   0.000013  -0.001906
    28  H   -0.001261  -0.000005  -0.000468  -0.000010   0.000047  -0.017262
    29  H    0.003559   0.000020  -0.000600   0.000038  -0.000009   0.024705
              13         14         15         16         17         18
     1  O    0.735510  -0.000016   0.000000   0.000000   0.000000  -0.000318
     2  O    0.000005  -0.094136   0.003545   0.047184   0.003363  -0.082685
     3  N   -0.000614  -0.049181   0.000450   0.003547  -0.000252  -0.000289
     4  H    0.000567   0.002314  -0.000309   0.000674   0.000178   0.000010
     5  C    0.064095   0.045343  -0.008822   0.012922  -0.012530  -0.128456
     6  C    0.127798  -0.004085   0.002786  -0.000117   0.001284  -0.002333
     7  C    0.026542   0.176617  -0.039924  -0.060872  -0.029832   0.029003
     8  C   -0.010231  -0.102277   0.007167  -0.029398   0.007041   0.268551
     9  C   -0.210046   0.021484   0.000035   0.002416  -0.001197  -0.025668
    10  H   -0.007378  -0.000455  -0.000027  -0.000017   0.000106  -0.005324
    11  H   -0.004051  -0.000105   0.000057  -0.000006  -0.000011  -0.011177
    12  C   -0.509887   0.005147  -0.001191  -0.000355  -0.000314   0.012170
    13  C    5.523006  -0.000065  -0.000029   0.000004  -0.000022   0.000827
    14  C   -0.000065   5.339584   0.390780   0.409702   0.389270  -0.005078
    15  H   -0.000029   0.390780   0.539875  -0.014049  -0.032637   0.000131
    16  H    0.000004   0.409702  -0.014049   0.432547  -0.013211   0.001830
    17  H   -0.000022   0.389270  -0.032637  -0.013211   0.530846   0.000121
    18  C    0.000827  -0.005078   0.000131   0.001830   0.000121   5.163875
    19  H   -0.000020  -0.000000   0.000009  -0.000011  -0.000008   0.403959
    20  H    0.002159   0.000612  -0.000013  -0.000231  -0.000017   0.414558
    21  H   -0.000023  -0.000056  -0.000008   0.000010   0.000012   0.411149
    22  C    0.320450   0.000019  -0.000002   0.000000   0.000000   0.000013
    23  H   -0.075102   0.000001   0.000000  -0.000000  -0.000000   0.000000
    24  H   -0.039000   0.000000  -0.000000  -0.000000   0.000000  -0.000000
    25  H   -0.044600   0.000000  -0.000000  -0.000000   0.000000   0.000000
    26  C   -0.048551  -0.000657   0.000097   0.000012  -0.000164  -0.000022
    27  H   -0.006815  -0.000003   0.000008  -0.000000  -0.000004  -0.000000
    28  H    0.005766  -0.000058  -0.000016  -0.000000   0.000011  -0.000000
    29  H   -0.000416   0.000581   0.000025   0.000001  -0.000008   0.000001
              19         20         21         22         23         24
     1  O    0.000007   0.000886   0.000002  -0.118178   0.003805   0.002215
     2  O   -0.001171   0.007663  -0.000919   0.000000  -0.000000   0.000000
     3  N    0.000011   0.000057   0.000010   0.000267   0.000061   0.000107
     4  H   -0.000001   0.000000  -0.000001   0.000111  -0.000051  -0.000016
     5  C   -0.004699   0.083213  -0.004031   0.000295  -0.000333  -0.000085
     6  C    0.000071  -0.001360   0.000047  -0.005647  -0.024711   0.008141
     7  C   -0.001387   0.005856  -0.000889   0.001195  -0.000034  -0.000030
     8  C   -0.019649  -0.149338  -0.024446  -0.000048   0.000002   0.000002
     9  C   -0.001033  -0.017148  -0.001755   0.018251   0.001219  -0.002155
    10  H    0.000271  -0.004665   0.000463   0.001422  -0.000152   0.000153
    11  H    0.000261  -0.003195   0.000505  -0.000052   0.000055  -0.000117
    12  C   -0.000401   0.005642  -0.000280  -0.308204   0.051232   0.003323
    13  C   -0.000020   0.002159  -0.000023   0.320450  -0.075102  -0.039000
    14  C   -0.000000   0.000612  -0.000056   0.000019   0.000001   0.000000
    15  H    0.000009  -0.000013  -0.000008  -0.000002   0.000000  -0.000000
    16  H   -0.000011  -0.000231   0.000010   0.000000  -0.000000  -0.000000
    17  H   -0.000008  -0.000017   0.000012   0.000000  -0.000000   0.000000
    18  C    0.403959   0.414558   0.411149   0.000013   0.000000  -0.000000
    19  H    0.499888  -0.021154  -0.018437  -0.000001   0.000000   0.000000
    20  H   -0.021154   0.549153  -0.022598   0.000056  -0.000001  -0.000001
    21  H   -0.018437  -0.022598   0.497514  -0.000000   0.000000   0.000000
    22  C   -0.000001   0.000056  -0.000000   5.438533   0.385124   0.404998
    23  H    0.000000  -0.000001   0.000000   0.385124   0.552969  -0.031563
    24  H    0.000000  -0.000001   0.000000   0.404998  -0.031563   0.504804
    25  H    0.000000  -0.000000  -0.000000   0.382630  -0.020133  -0.007942
    26  C    0.000000  -0.000014   0.000000  -0.040135   0.020163  -0.015823
    27  H    0.000000   0.000000  -0.000000   0.010181  -0.008024  -0.000646
    28  H   -0.000000   0.000000   0.000000  -0.012674  -0.002473   0.001572
    29  H   -0.000000  -0.000000   0.000000   0.001858   0.000709   0.000172
              25         26         27         28         29
     1  O    0.010217   0.000822  -0.000117  -0.000026   0.000018
     2  O   -0.000000   0.000010  -0.000000  -0.000000   0.000000
     3  N    0.000020  -0.027098   0.000046  -0.002849   0.003654
     4  H   -0.000002  -0.010767   0.000874   0.000585   0.002388
     5  C   -0.000065   0.002247   0.000374   0.000477  -0.000570
     6  C   -0.001685   0.200984  -0.037650  -0.039751  -0.053810
     7  C    0.000012   0.004269  -0.001121  -0.001261   0.003559
     8  C   -0.000001   0.000891  -0.000001  -0.000005   0.000020
     9  C   -0.000029   0.018554  -0.000473  -0.000468  -0.000600
    10  H   -0.000072  -0.000323  -0.000029  -0.000010   0.000038
    11  H   -0.000037   0.000053   0.000013   0.000047  -0.000009
    12  C    0.025153  -0.090701  -0.001906  -0.017262   0.024705
    13  C   -0.044600  -0.048551  -0.006815   0.005766  -0.000416
    14  C    0.000000  -0.000657  -0.000003  -0.000058   0.000581
    15  H   -0.000000   0.000097   0.000008  -0.000016   0.000025
    16  H   -0.000000   0.000012  -0.000000  -0.000000   0.000001
    17  H    0.000000  -0.000164  -0.000004   0.000011  -0.000008
    18  C    0.000000  -0.000022  -0.000000  -0.000000   0.000001
    19  H    0.000000   0.000000   0.000000  -0.000000  -0.000000
    20  H   -0.000000  -0.000014   0.000000   0.000000  -0.000000
    21  H   -0.000000   0.000000  -0.000000   0.000000   0.000000
    22  C    0.382630  -0.040135   0.010181  -0.012674   0.001858
    23  H   -0.020133   0.020163  -0.008024  -0.002473   0.000709
    24  H   -0.007942  -0.015823  -0.000646   0.001572   0.000172
    25  H    0.493265   0.001787   0.000630   0.000103  -0.000043
    26  C    0.001787   5.239174   0.414938   0.439027   0.385998
    27  H    0.000630   0.414938   0.512698  -0.029519  -0.023504
    28  H    0.000103   0.439027  -0.029519   0.478318  -0.015957
    29  H   -0.000043   0.385998  -0.023504  -0.015957   0.523389
 Mulliken charges:
               1
     1  O   -0.363088
     2  O   -0.437461
     3  N   -0.203430
     4  H    0.289368
     5  C   -0.156992
     6  C    0.261996
     7  C    0.311527
     8  C    0.228200
     9  C   -0.309629
    10  H    0.164541
    11  H    0.168157
    12  C   -0.146704
    13  C    0.150120
    14  C   -0.525285
    15  H    0.152062
    16  H    0.207419
    17  H    0.157975
    18  C   -0.444849
    19  H    0.163495
    20  H    0.149883
    21  H    0.163731
    22  C   -0.480461
    23  H    0.147235
    24  H    0.171893
    25  H    0.160792
    26  C   -0.494772
    27  H    0.170050
    28  H    0.196423
    29  H    0.147802
 Sum of Mulliken charges =  -0.00000
 Mulliken charges with hydrogens summed into heavy atoms:
               1
     1  O   -0.363088
     2  O   -0.437461
     3  N    0.085938
     5  C   -0.156992
     6  C    0.261996
     7  C    0.311527
     8  C    0.228200
     9  C    0.023070
    12  C   -0.146704
    13  C    0.150120
    14  C   -0.007829
    18  C    0.032261
    22  C   -0.000541
    26  C    0.019502
 Electronic spatial extent (au):  <R**2>=          50691.7192
 Charge=             -0.0000 electrons
 Dipole moment (field-independent basis, Debye):
    X=              1.6992    Y=              8.4174    Z=              0.3532  Tot=              8.5944
 Quadrupole moment (field-independent basis, Debye-Ang):
   XX=           -110.3050   YY=            116.0085   ZZ=            -85.0744
   XY=              9.2851   XZ=             -4.7745   YZ=              7.8104
 Traceless Quadrupole moment (field-independent basis, Debye-Ang):
   XX=            -83.8480   YY=            142.4655   ZZ=            -58.6175
   XY=              9.2851   XZ=             -4.7745   YZ=              7.8104
 Octapole moment (field-independent basis, Debye-Ang**2):
  XXX=            554.5157  YYY=            761.9785  ZZZ=            -96.7370  XYY=             93.4825
  XXY=          -1148.0218  XXZ=            -15.4839  XZZ=            129.6748  YZZ=           -950.2909
  YYZ=            101.3946  XYZ=            -43.6671
 Hexadecapole moment (field-independent basis, Debye-Ang**3):
 XXXX=          -4777.5536 YYYY=          -7255.3524 ZZZZ=           -257.8082 XXXY=           5548.9667
 XXXZ=           -134.2149 YYYX=           1767.8738 YYYZ=            943.1964 ZZZX=            -40.8538
 ZZZY=          -1122.6164 XXYY=         -12745.5099 XXZZ=           -675.8225 YYZZ=         -10902.8505
 XXYZ=           -205.7271 YYXZ=           -416.5977 ZZXY=           1379.8590
 N-N= 8.973605630036D+02 E-N=-3.270586600919D+03  KE= 6.305363082544D+02
 Leave Link  601 at Wed Jan 21 04:26:17 2026, MaxMem=  2147483648 cpu:               1.1 elap:               0.1
 (Enter /data/home/wyx/g16/l9999.exe)
 Electronic transition elements 
                 1             2             3             4             5 
      1  -0.633194D+03 -0.633191D+03 -0.633158D+03 -0.633125D+03 -0.633116D+03
      2   0.148093D+01 -0.519534D-01 -0.217461D-01 -0.548177D+00 -0.175659D+00
      3   0.546153D+00 -0.327825D-01  0.408359D-01  0.124521D+01  0.134518D+01
      4   0.252669D+00 -0.499716D-01  0.323324D-01 -0.485740D-01 -0.780618D-04
      5  -0.170441D+00  0.604590D-02  0.228102D-02  0.896561D-01  0.359034D-01
      6  -0.636810D-01  0.387597D-02 -0.593993D-02 -0.218571D+00 -0.257790D+00
      7  -0.292998D-01  0.512717D-02 -0.128646D-02  0.864993D-02  0.313001D-03
      8  -0.842049D+00 -0.623474D+00 -0.333984D+00  0.419824D+00  0.319377D+00
      9  -0.218616D+00  0.269764D-01  0.860473D+00  0.679934D-01 -0.364248D-02
     10   0.516426D+01 -0.328134D+00 -0.109321D+00 -0.173122D+01 -0.385510D+00
     11   0.994056D+00 -0.217730D-01  0.153793D-01  0.674497D+00  0.473867D+00
     12  -0.246673D+01  0.152966D+00 -0.260817D+00 -0.949812D+01 -0.112138D+02
     13  -0.492106D-01 -0.348412D-02 -0.155125D-01  0.211694D-01 -0.292955D-02
     14  -0.291599D+01  0.963222D-01  0.568464D-01  0.280678D+01  0.198614D+01
     15  -0.141337D-01 -0.396120D-01 -0.571067D-01  0.260558D+00  0.181594D+00
     16  -0.576276D+00  0.776220D-01 -0.518135D-01  0.615174D-01 -0.862800D-01
                 6 
      1  -0.633086D+03
      2  -0.341531D-01
      3  -0.153655D-01
      4   0.394299D-01
      5   0.107535D-01
      6   0.302125D-02
      7  -0.279006D-01
      8  -0.659838D+00
      9  -0.846579D-01
     10  -0.259357D+00
     11   0.158142D-01
     12   0.174680D+00
     13  -0.854525D-01
     14   0.210209D+00
     15   0.110917D+00
     16  -0.572382D+00
 1\1\GINC-CN012\SP\RCAM-B3LYP TD-FC\TZVP\C11H15N1O2\WYX\21-Jan-2026\0\\
 #p CAM-B3LYP/TZVP em=gd3bj TD=NStates=6 SCRF=(Solvent=TetraHydroFuran)
  Geom=Check Guess=Read NoSymm\\Title Card Required\\0,1\O,0,1.34739076
 44,9.840781217,0.897744885\O,0,-4.8535390638,9.7442733358,-0.245617068
 7\N,0,-2.1107444461,12.9210315512,0.360594592\H,0,-2.4304244301,13.874
 4613398,0.3217962169\C,0,-2.6841578447,10.6165204568,0.2193157758\C,0,
 -0.779552222,12.7134033086,0.5480856974\C,0,-3.0670246149,11.931692087
 8,0.1604423656\C,0,-3.5900120001,9.5621101328,0.021419646\C,0,-1.24745
 36357,10.255933709,0.5279855866\H,0,-1.1946416811,9.6986431392,1.46838
 5115\H,0,-0.8660425707,9.5662511647,-0.2275697878\C,0,-0.303385878,11.
 4372283009,0.6058463419\C,0,1.0840972303,11.0376850273,0.7738875042\C,
 0,-4.4312790014,12.4689869379,-0.0911832483\H,0,-4.4386689279,13.14512
 4625,-0.9512112552\H,0,-5.1432544005,11.6689599328,-0.2965614271\H,0,-
 4.8058241918,13.025014943,0.7739331293\C,0,-3.2686095683,8.0911213467,
 0.1004193528\H,0,-3.4687772657,7.6026423352,-0.8561935739\H,0,-2.22249
 11485,7.9584887783,0.3586791732\H,0,-3.8883760468,7.6060433014,0.85804
 39121\C,0,2.2405210418,12.0117066387,0.7854066045\H,0,2.199355291,12.7
 219371824,-0.0371555231\H,0,2.2657274328,12.5775552542,1.7173256859\H,
 0,3.1579887748,11.433040175,0.7131159106\C,0,-0.0027017226,13.99340537
 27,0.6633868693\H,0,0.6797146258,13.9827010664,1.5069726942\H,0,0.5768
 631086,14.1876602453,-0.2385912589\H,0,-0.6838686389,14.8314315441,0.8
 032960847\\Version=ES64L-G16RevA.03\HF=-633.3116723\RMSD=2.520e-09\PG=
 C01 [X(C11H15N1O2)]\\@


 NATURE REVEALS EVERY SECRET ONCE.
                    - RALPH WALDO EMERSON
 Job cpu time:       0 days  1 hours  7 minutes 32.4 seconds.
 Elapsed time:       0 days  0 hours  2 minutes  8.5 seconds.
 File lengths (MBytes):  RWF=    824 Int=      0 D2E=      0 Chk=     67 Scr=      1
 Normal termination of Gaussian 16 at Wed Jan 21 04:26:19 2026.
