 Entering Gaussian System, Link 0=g16
 Input=DDL-S1-TD-Neq.gjf
 Output=DDL-S1-TD-Neq.log
 Initial command:
 /data/home/wyx/g16/l1.exe "/scr/tmp/wyx/13032/Gau-1837167.inp" -scrdir="/scr/tmp/wyx/13032/"
 Entering Link 1 = /data/home/wyx/g16/l1.exe PID=   1837168.
  
 Copyright (c) 1988,1990,1992,1993,1995,1998,2003,2009,2016,
            Gaussian, Inc.  All Rights Reserved.
  
 This is part of the Gaussian(R) 16 program.  It is based on
 the Gaussian(R) 09 system (copyright 2009, Gaussian, Inc.),
 the Gaussian(R) 03 system (copyright 2003, Gaussian, Inc.),
 the Gaussian(R) 98 system (copyright 1998, Gaussian, Inc.),
 the Gaussian(R) 94 system (copyright 1995, Gaussian, Inc.),
 the Gaussian 92(TM) system (copyright 1992, Gaussian, Inc.),
 the Gaussian 90(TM) system (copyright 1990, Gaussian, Inc.),
 the Gaussian 88(TM) system (copyright 1988, Gaussian, Inc.),
 the Gaussian 86(TM) system (copyright 1986, Carnegie Mellon
 University), and the Gaussian 82(TM) system (copyright 1983,
 Carnegie Mellon University). Gaussian is a federally registered
 trademark of Gaussian, Inc.
  
 This software contains proprietary and confidential information,
 including trade secrets, belonging to Gaussian, Inc.
  
 This software is provided under written license and may be
 used, copied, transmitted, or stored only in accord with that
 written license.
  
 The following legend is applicable only to US Government
 contracts under FAR:
  
                    RESTRICTED RIGHTS LEGEND
  
 Use, reproduction and disclosure by the US Government is
 subject to restrictions as set forth in subparagraphs (a)
 and (c) of the Commercial Computer Software - Restricted
 Rights clause in FAR 52.227-19.
  
 Gaussian, Inc.
 340 Quinnipiac St., Bldg. 40, Wallingford CT 06492
  
  
 ---------------------------------------------------------------
 Warning -- This program may not be used in any manner that
 competes with the business of Gaussian, Inc. or will provide
 assistance to any competitor of Gaussian, Inc.  The licensee
 of this program is prohibited from giving any competitor of
 Gaussian, Inc. access to this program.  By using this program,
 the user acknowledges that Gaussian, Inc. is engaged in the
 business of creating and licensing software in the field of
 computational chemistry and represents and warrants to the
 licensee that it is not a competitor of Gaussian, Inc. and that
 it will not use this program in any manner prohibited above.
 ---------------------------------------------------------------
  

 Cite this work as:
 Gaussian 16, Revision A.03,
 M. J. Frisch, G. W. Trucks, H. B. Schlegel, G. E. Scuseria, 
 M. A. Robb, J. R. Cheeseman, G. Scalmani, V. Barone, 
 G. A. Petersson, H. Nakatsuji, X. Li, M. Caricato, A. V. Marenich, 
 J. Bloino, B. G. Janesko, R. Gomperts, B. Mennucci, H. P. Hratchian, 
 J. V. Ortiz, A. F. Izmaylov, J. L. Sonnenberg, D. Williams-Young, 
 F. Ding, F. Lipparini, F. Egidi, J. Goings, B. Peng, A. Petrone, 
 T. Henderson, D. Ranasinghe, V. G. Zakrzewski, J. Gao, N. Rega, 
 G. Zheng, W. Liang, M. Hada, M. Ehara, K. Toyota, R. Fukuda, 
 J. Hasegawa, M. Ishida, T. Nakajima, Y. Honda, O. Kitao, H. Nakai, 
 T. Vreven, K. Throssell, J. A. Montgomery, Jr., J. E. Peralta, 
 F. Ogliaro, M. J. Bearpark, J. J. Heyd, E. N. Brothers, K. N. Kudin, 
 V. N. Staroverov, T. A. Keith, R. Kobayashi, J. Normand, 
 K. Raghavachari, A. P. Rendell, J. C. Burant, S. S. Iyengar, 
 J. Tomasi, M. Cossi, J. M. Millam, M. Klene, C. Adamo, R. Cammi, 
 J. W. Ochterski, R. L. Martin, K. Morokuma, O. Farkas, 
 J. B. Foresman, and D. J. Fox, Gaussian, Inc., Wallingford CT, 2016.
 
 ******************************************
 Gaussian 16:  ES64L-G16RevA.03 25-Dec-2016
                20-Jan-2026 
 ******************************************
 %nprocshared=32
 Will use up to   32 processors via shared memory.
 %mem=16GB
 %oldchk=DDL-S1-opt-freq.chk
 %chk=DDL-S1-TD-Neq.chk
 Copying data from "DDL-S1-opt-freq.chk" to current chk file "DDL-S1-TD-Neq.chk"
 IOpt=  2 FromEx=T IUOpen= 4 IOptOp= 5 NList=   0 IFRang= 0 IUIn= 4 IUOut= 2.
 ----------------------------------------------------------------------
 #p CAM-B3LYP/TZVP em=gd3bj TD=NStates=6 SCRF=(Solvent=TetraHydroFuran)
  Geom=Check Guess=Read NoSymm
 ----------------------------------------------------------------------
 1/29=2,38=1,172=1/1;
 2/12=2,15=1,40=1/2;
 3/5=19,7=101,11=9,14=-4,25=1,30=1,70=2201,72=20,74=-40,116=-2,124=41/1,2,3,8;
 4/5=1/1;
 5/5=2,38=6,53=20/2;
 8/6=1,10=1,108=6/1;
 9/41=6,42=1,70=2/14;
 6/7=2,8=2,9=2,10=2/1;
 99/5=1,9=1/99;
 Leave Link    1 at Tue Jan 20 21:51:08 2026, MaxMem=  2147483648 cpu:               5.2 elap:               0.2
 (Enter /data/home/wyx/g16/l101.exe)
 -------------------
 Title Card Required
 -------------------
 Structure from the checkpoint file:  "DDL-S1-TD-Neq.chk"
 Charge =  0 Multiplicity = 1
 Redundant internal coordinates found in file.  (old form).
 O,0,1.3945220005,9.8211866469,0.3945305353
 O,0,-4.8762889793,9.7402731996,0.1870816674
 N,0,-2.119093892,12.9160131106,0.2510925989
 H,0,-2.4316304625,13.8776595666,0.2028378196
 C,0,-2.6969141816,10.6323332674,0.1926468445
 C,0,-0.7728057445,12.7417115393,0.3864908624
 C,0,-3.0923761221,11.9845013972,0.1641778763
 C,0,-3.6542766842,9.5449293575,0.1822849717
 C,0,-1.2583982383,10.3215110855,0.2415180553
 H,0,-1.0564395505,9.5275944052,0.9726277758
 H,0,-0.9623615762,9.8094358106,-0.6959598527
 C,0,-0.2994973216,11.4231421917,0.4441503941
 C,0,1.0730758362,10.9925573426,0.6423449869
 C,0,-4.4829110014,12.5062596591,0.0242602602
 H,0,-4.47598769,13.5956118672,-0.0332442812
 H,0,-4.961492716,12.1128292531,-0.8712659815
 H,0,-5.1063355443,12.2047306163,0.8641589114
 C,0,-3.1463452612,8.1202064333,0.2047959073
 H,0,-3.9394077773,7.471059059,-0.1588442099
 H,0,-2.2524203394,7.9653081326,-0.3963472504
 H,0,-2.9103362683,7.8240474218,1.2303683466
 C,0,2.1297812824,11.9200948896,1.1934823237
 H,0,2.6331670771,12.4549388249,0.385004468
 H,0,1.7360388295,12.6535136314,1.892425968
 H,0,2.8746018547,11.3078198525,1.6977974643
 C,0,0.025601032,14.0039920756,0.4113642378
 H,0,0.3229548738,14.2927380054,1.4218681424
 H,0,0.9302988668,13.9110325722,-0.1851100019
 H,0,-0.5538933323,14.8288032352,-0.0045388403
 Recover connectivity data from disk.
 ITRead=  0  0  0  0  0  0  0  0  0  0  0  0  0  0  0  0  0  0  0  0
 ITRead=  0  0  0  0  0  0  0  0  0
 MicOpt= -1 -1 -1 -1 -1 -1 -1 -1 -1 -1 -1 -1 -1 -1 -1 -1 -1 -1 -1 -1
 MicOpt= -1 -1 -1 -1 -1 -1 -1 -1 -1
                           ----------------------------
                           !    Current Parameters    !
                           ! (Angstroms and Degrees)  !
 --------------------------                            --------------------------
 ! Name  Definition              Value                                          !
 --------------------------------------------------------------------------------
 ! R1    R(1,13)                 1.2397                                         !
 ! R2    R(2,8)                  1.2375                                         !
 ! R3    R(3,4)                  1.0123                                         !
 ! R4    R(3,6)                  1.3643                                         !
 ! R5    R(3,7)                  1.35                                           !
 ! R6    R(5,7)                  1.4091                                         !
 ! R7    R(5,8)                  1.4488                                         !
 ! R8    R(5,9)                  1.4725                                         !
 ! R9    R(6,12)                 1.4021                                         !
 ! R10   R(6,26)                 1.4938                                         !
 ! R11   R(7,14)                 1.4918                                         !
 ! R12   R(8,18)                 1.5127                                         !
 ! R13   R(9,10)                 1.098                                          !
 ! R14   R(9,11)                 1.1085                                         !
 ! R15   R(9,12)                 1.4745                                         !
 ! R16   R(12,13)                1.4521                                         !
 ! R17   R(13,22)                1.5102                                         !
 ! R18   R(14,15)                1.0909                                         !
 ! R19   R(14,16)                1.0889                                         !
 ! R20   R(14,17)                1.0886                                         !
 ! R21   R(18,19)                1.0875                                         !
 ! R22   R(18,20)                1.0883                                         !
 ! R23   R(18,21)                1.0933                                         !
 ! R24   R(22,23)                1.0923                                         !
 ! R25   R(22,24)                1.0869                                         !
 ! R26   R(22,25)                1.0881                                         !
 ! R27   R(26,27)                1.0922                                         !
 ! R28   R(26,28)                1.0876                                         !
 ! R29   R(26,29)                1.0905                                         !
 ! A1    A(4,3,6)              115.5163                                         !
 ! A2    A(4,3,7)              115.456                                          !
 ! A3    A(6,3,7)              129.0263                                         !
 ! A4    A(7,5,8)              122.3185                                         !
 ! A5    A(7,5,9)              118.5151                                         !
 ! A6    A(8,5,9)              119.1656                                         !
 ! A7    A(3,6,12)             117.216                                          !
 ! A8    A(3,6,26)             114.9061                                         !
 ! A9    A(12,6,26)            127.8466                                         !
 ! A10   A(3,7,5)              117.2897                                         !
 ! A11   A(3,7,14)             115.8948                                         !
 ! A12   A(5,7,14)             126.8071                                         !
 ! A13   A(2,8,5)              122.2758                                         !
 ! A14   A(2,8,18)             118.6964                                         !
 ! A15   A(5,8,18)             119.0059                                         !
 ! A16   A(5,9,10)             110.7571                                         !
 ! A17   A(5,9,11)             109.2895                                         !
 ! A18   A(5,9,12)             118.8267                                         !
 ! A19   A(10,9,11)            100.3691                                         !
 ! A20   A(10,9,12)            109.2136                                         !
 ! A21   A(11,9,12)            106.7196                                         !
 ! A22   A(6,12,9)             118.5171                                         !
 ! A23   A(6,12,13)            127.1236                                         !
 ! A24   A(9,12,13)            114.3254                                         !
 ! A25   A(1,13,12)            119.8669                                         !
 ! A26   A(1,13,22)            118.1546                                         !
 ! A27   A(12,13,22)           121.943                                          !
 ! A28   A(7,14,15)            110.3828                                         !
 ! A29   A(7,14,16)            111.1268                                         !
 ! A30   A(7,14,17)            111.3819                                         !
 ! A31   A(15,14,16)           108.6765                                         !
 ! A32   A(15,14,17)           108.7178                                         !
 ! A33   A(16,14,17)           106.4238                                         !
 ! A34   A(8,18,19)            108.2017                                         !
 ! A35   A(8,18,20)            113.6795                                         !
 ! A36   A(8,18,21)            109.9733                                         !
 ! A37   A(19,18,20)           109.229                                          !
 ! A38   A(19,18,21)           108.0241                                         !
 ! A39   A(20,18,21)           107.5949                                         !
 ! A40   A(13,22,23)           110.676                                          !
 ! A41   A(13,22,24)           113.3048                                         !
 ! A42   A(13,22,25)           107.6082                                         !
 ! A43   A(23,22,24)           108.21                                           !
 ! A44   A(23,22,25)           107.6452                                         !
 ! A45   A(24,22,25)           109.2451                                         !
 ! A46   A(6,26,27)            112.6012                                         !
 ! A47   A(6,26,28)            111.2991                                         !
 ! A48   A(6,26,29)            110.4123                                         !
 ! A49   A(27,26,28)           107.6699                                         !
 ! A50   A(27,26,29)           107.3126                                         !
 ! A51   A(28,26,29)           107.3091                                         !
 ! D1    D(4,3,6,12)          -179.4101                                         !
 ! D2    D(4,3,6,26)            -1.2829                                         !
 ! D3    D(7,3,6,12)             0.1364                                         !
 ! D4    D(7,3,6,26)           178.2636                                         !
 ! D5    D(4,3,7,5)            178.4176                                         !
 ! D6    D(4,3,7,14)            -0.6009                                         !
 ! D7    D(6,3,7,5)             -1.1291                                         !
 ! D8    D(6,3,7,14)           179.8524                                         !
 ! D9    D(8,5,7,3)            176.4632                                         !
 ! D10   D(8,5,7,14)            -4.6395                                         !
 ! D11   D(9,5,7,3)             -3.2187                                         !
 ! D12   D(9,5,7,14)           175.6786                                         !
 ! D13   D(7,5,8,2)             -2.1508                                         !
 ! D14   D(7,5,8,18)           179.5729                                         !
 ! D15   D(9,5,8,2)            177.5291                                         !
 ! D16   D(9,5,8,18)            -0.7472                                         !
 ! D17   D(7,5,9,10)           135.8671                                         !
 ! D18   D(7,5,9,11)          -114.4643                                         !
 ! D19   D(7,5,9,12)             8.2555                                         !
 ! D20   D(8,5,9,10)           -43.8251                                         !
 ! D21   D(8,5,9,11)            65.8436                                         !
 ! D22   D(8,5,9,12)          -171.4366                                         !
 ! D23   D(3,6,12,9)             5.1113                                         !
 ! D24   D(3,6,12,13)         -177.1364                                         !
 ! D25   D(26,6,12,9)         -172.7375                                         !
 ! D26   D(26,6,12,13)           5.0148                                         !
 ! D27   D(3,6,26,27)          101.355                                          !
 ! D28   D(3,6,26,28)         -137.6354                                         !
 ! D29   D(3,6,26,29)          -18.5692                                         !
 ! D30   D(12,6,26,27)         -80.7542                                         !
 ! D31   D(12,6,26,28)          40.2554                                         !
 ! D32   D(12,6,26,29)         159.3216                                         !
 ! D33   D(3,7,14,15)            2.7292                                         !
 ! D34   D(3,7,14,16)          123.3798                                         !
 ! D35   D(3,7,14,17)         -118.143                                          !
 ! D36   D(5,7,14,15)         -176.1815                                         !
 ! D37   D(5,7,14,16)          -55.5308                                         !
 ! D38   D(5,7,14,17)           62.9464                                         !
 ! D39   D(2,8,18,19)           21.6324                                         !
 ! D40   D(2,8,18,20)          143.1503                                         !
 ! D41   D(2,8,18,21)          -96.1469                                         !
 ! D42   D(5,8,18,19)         -160.0291                                         !
 ! D43   D(5,8,18,20)          -38.5111                                         !
 ! D44   D(5,8,18,21)           82.1917                                         !
 ! D45   D(5,9,12,6)            -9.2283                                         !
 ! D46   D(5,9,12,13)          172.7384                                         !
 ! D47   D(10,9,12,6)         -137.5591                                         !
 ! D48   D(10,9,12,13)          44.4076                                         !
 ! D49   D(11,9,12,6)          114.7606                                         !
 ! D50   D(11,9,12,13)         -63.2727                                         !
 ! D51   D(6,12,13,1)         -164.8253                                         !
 ! D52   D(6,12,13,22)          17.3852                                         !
 ! D53   D(9,12,13,1)           13.0073                                         !
 ! D54   D(9,12,13,22)        -164.7822                                         !
 ! D55   D(1,13,22,23)          91.9875                                         !
 ! D56   D(1,13,22,24)        -146.2599                                         !
 ! D57   D(1,13,22,25)         -25.3796                                         !
 ! D58   D(12,13,22,23)        -90.1866                                         !
 ! D59   D(12,13,22,24)         31.566                                          !
 ! D60   D(12,13,22,25)        152.4463                                         !
 --------------------------------------------------------------------------------
 NAtoms=     29 NQM=       29 NQMF=       0 NMMI=      0 NMMIF=      0
                NMic=       0 NMicF=      0.
                    Isotopes and Nuclear Properties:
 (Nuclear quadrupole moments (NQMom) in fm**2, nuclear magnetic moments (NMagM)
  in nuclear magnetons)

  Atom         1           2           3           4           5           6           7           8           9          10
 IAtWgt=          16          16          14           1          12          12          12          12          12           1
 AtmWgt=  15.9949146  15.9949146  14.0030740   1.0078250  12.0000000  12.0000000  12.0000000  12.0000000  12.0000000   1.0078250
 NucSpn=           0           0           2           1           0           0           0           0           0           1
 AtZEff=   5.6000000   5.6000000   4.5500000   1.0000000   3.6000000   3.6000000   3.6000000   3.6000000   3.6000000   1.0000000
 NQMom=    0.0000000   0.0000000   2.0440000   0.0000000   0.0000000   0.0000000   0.0000000   0.0000000   0.0000000   0.0000000
 NMagM=    0.0000000   0.0000000   0.4037610   2.7928460   0.0000000   0.0000000   0.0000000   0.0000000   0.0000000   2.7928460
 AtZNuc=   8.0000000   8.0000000   7.0000000   1.0000000   6.0000000   6.0000000   6.0000000   6.0000000   6.0000000   1.0000000

  Atom        11          12          13          14          15          16          17          18          19          20
 IAtWgt=           1          12          12          12           1           1           1          12           1           1
 AtmWgt=   1.0078250  12.0000000  12.0000000  12.0000000   1.0078250   1.0078250   1.0078250  12.0000000   1.0078250   1.0078250
 NucSpn=           1           0           0           0           1           1           1           0           1           1
 AtZEff=   1.0000000   3.6000000   3.6000000   3.6000000   1.0000000   1.0000000   1.0000000   3.6000000   1.0000000   1.0000000
 NQMom=    0.0000000   0.0000000   0.0000000   0.0000000   0.0000000   0.0000000   0.0000000   0.0000000   0.0000000   0.0000000
 NMagM=    2.7928460   0.0000000   0.0000000   0.0000000   2.7928460   2.7928460   2.7928460   0.0000000   2.7928460   2.7928460
 AtZNuc=   1.0000000   6.0000000   6.0000000   6.0000000   1.0000000   1.0000000   1.0000000   6.0000000   1.0000000   1.0000000

  Atom        21          22          23          24          25          26          27          28          29
 IAtWgt=           1          12           1           1           1          12           1           1           1
 AtmWgt=   1.0078250  12.0000000   1.0078250   1.0078250   1.0078250  12.0000000   1.0078250   1.0078250   1.0078250
 NucSpn=           1           0           1           1           1           0           1           1           1
 AtZEff=   1.0000000   3.6000000   1.0000000   1.0000000   1.0000000   3.6000000   1.0000000   1.0000000   1.0000000
 NQMom=    0.0000000   0.0000000   0.0000000   0.0000000   0.0000000   0.0000000   0.0000000   0.0000000   0.0000000
 NMagM=    2.7928460   0.0000000   2.7928460   2.7928460   2.7928460   0.0000000   2.7928460   2.7928460   2.7928460
 AtZNuc=   1.0000000   6.0000000   1.0000000   1.0000000   1.0000000   6.0000000   1.0000000   1.0000000   1.0000000
 Leave Link  101 at Tue Jan 20 21:51:14 2026, MaxMem=  2147483648 cpu:               6.4 elap:               0.2
 (Enter /data/home/wyx/g16/l202.exe)
                          Input orientation:                          
 ---------------------------------------------------------------------
 Center     Atomic      Atomic             Coordinates (Angstroms)
 Number     Number       Type             X           Y           Z
 ---------------------------------------------------------------------
      1          8           0        1.394522    9.821187    0.394531
      2          8           0       -4.876289    9.740273    0.187082
      3          7           0       -2.119094   12.916013    0.251093
      4          1           0       -2.431630   13.877660    0.202838
      5          6           0       -2.696914   10.632333    0.192647
      6          6           0       -0.772806   12.741712    0.386491
      7          6           0       -3.092376   11.984501    0.164178
      8          6           0       -3.654277    9.544929    0.182285
      9          6           0       -1.258398   10.321511    0.241518
     10          1           0       -1.056440    9.527594    0.972628
     11          1           0       -0.962362    9.809436   -0.695960
     12          6           0       -0.299497   11.423142    0.444150
     13          6           0        1.073076   10.992557    0.642345
     14          6           0       -4.482911   12.506260    0.024260
     15          1           0       -4.475988   13.595612   -0.033244
     16          1           0       -4.961493   12.112829   -0.871266
     17          1           0       -5.106336   12.204731    0.864159
     18          6           0       -3.146345    8.120206    0.204796
     19          1           0       -3.939408    7.471059   -0.158844
     20          1           0       -2.252420    7.965308   -0.396347
     21          1           0       -2.910336    7.824047    1.230368
     22          6           0        2.129781   11.920095    1.193482
     23          1           0        2.633167   12.454939    0.385004
     24          1           0        1.736039   12.653514    1.892426
     25          1           0        2.874602   11.307820    1.697797
     26          6           0        0.025601   14.003992    0.411364
     27          1           0        0.322955   14.292738    1.421868
     28          1           0        0.930299   13.911033   -0.185110
     29          1           0       -0.553893   14.828803   -0.004539
 ---------------------------------------------------------------------
                    Distance matrix (angstroms):
                    1          2          3          4          5
     1  O    0.000000
     2  O    6.274763   0.000000
     3  N    4.684445   4.206132   0.000000
     4  H    5.579531   4.805681   1.012310   0.000000
     5  C    4.175951   2.354884   2.356371   3.256167   0.000000
     6  C    3.636872   5.087924   1.364260   2.018863   2.861686
     7  C    4.986507   2.866955   1.350017   2.005524   1.409099
     8  C    5.060804   1.237536   3.704825   4.501981   1.448826
     9  C    2.704020   3.664687   2.733556   3.744885   1.472524
    10  H    2.535272   3.905581   3.623704   4.626748   2.126023
    11  H    2.596961   4.012901   3.447573   4.417809   2.115527
    12  C    2.332043   4.883150   2.361539   3.260196   2.536975
    13  C    1.239697   6.096755   3.747360   4.560696   3.813766
    14  C    6.472321   2.798560   2.409768   2.473940   2.594174
    15  H    6.992293   3.882322   2.469342   2.077181   3.463690
    16  H    6.874066   2.599304   3.159751   3.266271   2.907249
    17  H    6.939955   2.566107   3.131355   3.223365   2.954433
    18  C    4.852711   2.370155   4.904809   5.801645   2.552042
    19  H    5.854924   2.479263   5.755790   6.591566   3.414819
    20  H    4.167729   3.221114   4.994641   5.945338   2.767221
    21  H    4.818609   2.936893   5.245299   6.158831   3.001480
    22  C    2.363122   7.406044   4.464627   5.061612   5.094800
    23  H    2.910495   7.987522   4.776453   5.263981   5.636369
    24  H    3.222173   7.424153   4.198206   4.660763   5.159989
    25  H    2.469660   8.050824   5.442080   6.082358   5.810641
    26  C    4.401146   6.500625   2.410208   2.469297   4.339125
    27  H    4.711523   7.020098   3.038040   3.040734   4.901954
    28  H    4.156721   7.158926   3.237149   3.384403   4.904003
    29  H    5.388117   6.679293   2.484747   2.115083   4.716119
                    6          7          8          9         10
     6  C    0.000000
     7  C    2.450142   0.000000
     8  C    4.308595   2.503512   0.000000
     9  C    2.472688   2.476892   2.519290   0.000000
    10  H    3.279414   3.291659   2.715456   1.098004   0.000000
    11  H    3.131433   3.163496   2.843885   1.108478   1.694836
    12  C    1.402131   2.862461   3.853674   1.474497   2.108400
    13  C    2.555833   4.308548   4.965395   2.459011   2.605770
    14  C    3.735175   1.491776   3.079137   3.901001   4.638163
    15  H    3.823464   2.132846   4.138803   4.598708   5.408683
    16  H    4.418432   2.140609   3.068044   4.261457   5.033172
    17  H    4.392721   2.143480   3.106118   4.329067   4.855974
    18  C    5.198559   3.864885   1.512725   2.900247   2.634011
    19  H    6.172887   4.603582   2.120992   3.933596   3.717670
    20  H    5.061237   4.144108   2.189799   2.635649   2.396915
    21  H    5.428129   4.298753   2.147874   3.153419   2.530896
    22  C    3.122707   5.323020   6.333976   3.865419   3.990594
    23  H    3.418025   5.749080   6.931176   4.440313   4.746351
    24  H    2.927443   5.171848   6.453168   4.138887   4.291309
    25  H    4.132693   6.197960   6.930427   4.491686   4.375861
    26  C    1.493795   3.723067   5.785950   3.903610   4.639393
    27  H    2.162956   4.309783   6.316377   4.434473   4.981078
    28  H    2.143503   4.473862   6.341622   4.225763   4.949951
    29  H    2.134661   3.816073   6.129160   4.568649   5.413892
                   11         12         13         14         15
    11  H    0.000000
    12  C    2.084056   0.000000
    13  C    2.708107   1.452116   0.000000
    14  C    4.492866   4.341705   5.791573   0.000000
    15  H    5.207676   4.731871   6.166394   1.090891   0.000000
    16  H    4.618377   4.892871   6.321554   1.088942   1.771056
    17  H    5.034275   4.888045   6.301086   1.088581   1.771220
    18  C    2.904245   4.367061   5.123023   4.588732   5.639564
    19  H    3.823520   5.406617   6.178013   5.067758   6.149296
    20  H    2.270424   4.059182   4.615414   5.076637   6.064356
    21  H    3.383358   4.515319   5.123748   5.084368   6.112196
    22  C    4.193593   2.590339   1.510200   6.740799   6.924478
    23  H    4.592929   3.109441   2.153757   7.125401   7.212222
    24  H    4.697860   2.784730   2.181971   6.495157   6.571532
    25  H    4.764191   3.414650   2.111603   7.640025   7.890606
    26  C    4.449330   2.601452   3.196763   4.766522   4.541889
    27  H    5.122229   3.094828   3.472971   5.314241   5.062923
    28  H    4.546012   2.845693   3.036868   5.596433   5.417609
    29  H    5.083204   3.444498   4.216903   4.564232   4.111497
                   16         17         18         19         20
    16  H    0.000000
    17  H    1.743882   0.000000
    18  C    4.515939   4.578172   0.000000
    19  H    4.806062   4.981556   1.087462   0.000000
    20  H    4.976600   5.263688   1.088333   1.773870   0.000000
    21  H    5.197861   4.913950   1.093256   1.764511   1.760401
    22  C    7.388268   7.249197   6.576790   7.645768   6.113231
    23  H    7.705460   7.758356   7.226697   8.266412   6.681037
    24  H    7.265484   6.933745   6.872892   7.954636   6.567005
    25  H    8.285681   8.074327   6.974363   8.037324   6.468708
    26  C    5.485685   5.457026   6.687514   7.663266   6.504420
    27  H    6.159209   5.843630   7.184529   8.197664   7.069288
    28  H    6.198190   6.360298   7.092582   8.073908   6.747293
    29  H    5.249254   5.325892   7.195130   8.100736   7.081389
                   21         22         23         24         25
    21  H    0.000000
    22  C    6.494748   0.000000
    23  H    7.272567   1.092287   0.000000
    24  H    6.734305   1.086949   1.765387   0.000000
    25  H    6.769097   1.088105   1.759999   1.773442   0.000000
    26  C    6.890734   3.062990   3.033094   2.634945   4.128082
    27  H    7.234280   2.991023   3.128845   2.214788   3.936594
    28  H    7.335220   2.702426   2.311926   2.558657   3.755312
    29  H    7.492958   4.134967   3.993035   3.684311   5.200947
                   26         27         28         29
    26  C    0.000000
    27  H    1.092205   0.000000
    28  H    1.087613   1.759814   0.000000
    29  H    1.090460   1.758086   1.754348   0.000000
 Symmetry turned off by external request.
 Stoichiometry    C11H15NO2
 Framework group  C1[X(C11H15NO2)]
 Deg. of freedom    81
 Full point group                 C1      NOp   1
 Rotational constants (GHZ):           1.0702311           0.4891896           0.3417435
 Leave Link  202 at Tue Jan 20 21:51:14 2026, MaxMem=  2147483648 cpu:               0.1 elap:               0.1
 (Enter /data/home/wyx/g16/l301.exe)
 Standard basis: TZVP (5D, 7F)
 Ernie: Thresh=  0.10000D-02 Tol=  0.10000D-05 Strict=F.
   356 basis functions,   610 primitive gaussians,   370 cartesian basis functions
    52 alpha electrons       52 beta electrons
       nuclear repulsion energy       898.0749139445 Hartrees.
 IExCor=20419 DFT=T Ex+Corr=CAM-B3LYP ExCW=0 ScaHFX=  1.000000
 ScaDFX=  1.000000  1.000000  1.000000  0.810000 ScalE2=  1.000000  1.000000
 IRadAn=      5 IRanWt=     -1 IRanGd=            0 ICorTp=0 IEmpDi=141
 HFx  wShort=  0.000000 wLong=  0.330000 cFull=  0.190000 cShort=  0.000000 cLong=  0.460000
 DFx  wShort=  0.000000 wLong=  0.330000 cFull=  0.190000 cShort=  0.000000 cLong=  0.460000
 NAtoms=   29 NActive=   29 NUniq=   29 SFac= 1.00D+00 NAtFMM=   60 NAOKFM=F Big=F
 Integral buffers will be    131072 words long.
 Raffenetti 1 integral format.
 Two-electron integral symmetry is turned off.
 R6Disp:  Grimme-D3(BJ) Dispersion energy=       -0.0260901925 Hartrees.
 Nuclear repulsion after empirical dispersion term =      898.0488237520 Hartrees.
 ------------------------------------------------------------------------------
 Polarizable Continuum Model (PCM)
 =================================
 Model                : PCM.
 Atomic radii         : UFF (Universal Force Field).
 Polarization charges : Total charges.
 Charge compensation  : None.
 Solution method      : On-the-fly selection.
 Cavity type          : Scaled VdW (van der Waals Surface) (Alpha=1.100).
 Cavity algorithm     : GePol (No added spheres)
                        Default sphere list used, NSphG=   29.
                        Lebedev-Laikov grids with approx.  5.0 points / Ang**2.
                        Smoothing algorithm: York/Karplus (Gamma=1.0000).
                        Polarization charges: spherical gaussians, with
                                              point-specific exponents (IZeta= 3).
                        Self-potential: point-specific (ISelfS= 7).
                        Self-field    : sphere-specific E.n sum rule (ISelfD= 2).
 Solvent              : TetraHydroFuran, Eps=   7.425700 Eps(inf)=   1.974025
 ------------------------------------------------------------------------------
 GePol: Number of generator spheres                  =      29
 GePol: Total number of spheres                      =      29
 GePol: Number of exposed spheres                    =      29 (100.00%)
 GePol: Number of points                             =    2085
 GePol: Average weight of points                     =       0.13
 GePol: Minimum weight of points                     =   0.47D-08
 GePol: Maximum weight of points                     =    0.20577
 GePol: Number of points with low weight             =     128
 GePol: Fraction of low-weight points (<1% of avg)   =       6.14%
 GePol: Cavity surface area                          =    270.796 Ang**2
 GePol: Cavity volume                                =    290.059 Ang**3
 Leave Link  301 at Tue Jan 20 21:51:15 2026, MaxMem=  2147483648 cpu:               1.1 elap:               0.1
 (Enter /data/home/wyx/g16/l302.exe)
 NPDir=0 NMtPBC=     1 NCelOv=     1 NCel=       1 NClECP=     1 NCelD=      1
         NCelK=      1 NCelE2=     1 NClLst=     1 CellRange=     0.0.
 One-electron integrals computed using PRISM.
 NBasis=   356 RedAO= T EigKep=  3.81D-05  NBF=   356
 NBsUse=   356 1.00D-06 EigRej= -1.00D+00 NBFU=   356
 Precomputing XC quadrature grid using
 IXCGrd= 4 IRadAn=           5 IRanWt=          -1 IRanGd=           0 AccXCQ= 0.00D+00.
 Generated NRdTot=       0 NPtTot=           0 NUsed=           0 NTot=          32
 NSgBfM=   365   365   365   365   365 MxSgAt=    29 MxSgA2=    29.
 Leave Link  302 at Tue Jan 20 21:51:15 2026, MaxMem=  2147483648 cpu:               6.1 elap:               0.2
 (Enter /data/home/wyx/g16/l303.exe)
 DipDrv:  MaxL=1.
 Leave Link  303 at Tue Jan 20 21:51:16 2026, MaxMem=  2147483648 cpu:               1.1 elap:               0.1
 (Enter /data/home/wyx/g16/l308.exe)
 Leave Link  308 at Tue Jan 20 21:51:16 2026, MaxMem=  2147483648 cpu:               1.3 elap:               0.1
 (Enter /data/home/wyx/g16/l401.exe)
 Initial guess from the checkpoint file:  "DDL-S1-TD-Neq.chk"
 B after Tr=     0.000000    0.000000    0.000000
         Rot=    1.000000    0.000000    0.000000    0.000000 Ang=   0.00 deg.
 Guess basis will be translated and rotated to current coordinates.
 JPrj=2 DoOrth=T DoCkMO=T.
 Leave Link  401 at Tue Jan 20 21:51:17 2026, MaxMem=  2147483648 cpu:               4.4 elap:               0.2
 (Enter /data/home/wyx/g16/l502.exe)
 Two-electron integral symmetry not used.
 Closed shell SCF:
 Using DIIS extrapolation, IDIIS=  1040.
 NGot=  2147483648 LenX=  2147195087 LenY=  2147057746
 Requested convergence on RMS density matrix=1.00D-08 within 128 cycles.
 Requested convergence on MAX density matrix=1.00D-06.
 Requested convergence on             energy=1.00D-06.
 No special actions if energy rises.
 Fock matrices will be formed incrementally for  20 cycles.

 Cycle   1  Pass 1  IDiag  1:
 FoFJK:  IHMeth= 1 ICntrl=       0 DoSepK=T KAlg= 0 I1Cent=           0 FoldK=F
 IRaf=         1 NMat=       1 IRICut=       1 DoRegI=T DoRafI=F ISym2E= 0 IDoP0=0 IntGTp=1.
 FoFCou: FMM=F IPFlag=           0 FMFlag=      100000 FMFlg1=           0
         NFxFlg=           0 DoJE=T BraDBF=F KetDBF=F FulRan=T
         wScrn=  0.000000 ICntrl=       500 IOpCl=  0 I1Cent=           0 NGrid=           0
         NMat0=    1 NMatS0=      1 NMatT0=    0 NMatD0=    1 NMtDS0=    0 NMtDT0=    0
 Symmetry not used in FoFCou.
 Inv3:  Mode=1 IEnd=    13041675.
 Iteration    1 A*A^-1 deviation from unit magnitude is 3.77D-15 for    752.
 Iteration    1 A*A^-1 deviation from orthogonality  is 3.04D-15 for   1771    204.
 Iteration    1 A^-1*A deviation from unit magnitude is 3.77D-15 for    752.
 Iteration    1 A^-1*A deviation from orthogonality  is 2.89D-15 for   1978    115.
 E= -633.316976573883    
 DIIS: error= 1.22D-08 at cycle   1 NSaved=   1.
 NSaved= 1 IEnMin= 1 EnMin= -633.316976573883     IErMin= 1 ErrMin= 1.22D-08
 ErrMax= 1.22D-08  0.00D+00 EMaxC= 1.00D-01 BMatC= 5.65D-14 BMatP= 5.65D-14
 IDIUse=1 WtCom= 1.00D+00 WtEn= 0.00D+00
 Coeff-Com:  0.100D+01
 Coeff:      0.100D+01
 Gap=     0.214 Goal=   None    Shift=    0.000
 RMSDP=4.13D-09 MaxDP=2.99D-07              OVMax= 1.26D-07

 Error on total polarization charges =  0.01429
 SCF Done:  E(RCAM-B3LYP) =  -633.316976574     A.U. after    1 cycles
            NFock=  1  Conv=0.41D-08     -V/T= 2.0044
 KE= 6.305549622192D+02 PE=-3.271952117893D+03 EE= 1.110031355348D+03
 Leave Link  502 at Tue Jan 20 21:51:21 2026, MaxMem=  2147483648 cpu:             121.0 elap:               4.1
 (Enter /data/home/wyx/g16/l801.exe)
 DoSCS=F DFT=T ScalE2(SS,OS)=  1.000000  1.000000
 ExpMin= 9.52D-02 ExpMax= 2.70D+04 ExpMxC= 9.22D+02 IAcc=3 IRadAn=         5 AccDes= 0.00D+00
 HarFok:  IExCor=  205 AccDes= 0.00D+00 IRadAn=         5 IDoV=-2 UseB2=F ITyADJ=14
 ICtDFT= 12500011 ScaDFX=  1.000000  1.000000  1.000000  1.000000
 Largest valence mixing into a core orbital is  5.58D-05
 Largest core mixing into a valence orbital is  1.13D-05
 Range of M.O.s used for correlation:    15   356
 NBasis=   356 NAE=    52 NBE=    52 NFC=    14 NFV=     0
 NROrb=    342 NOA=    38 NOB=    38 NVA=   304 NVB=   304

 **** Warning!!: The largest alpha MO coefficient is  0.60723633D+02

 Leave Link  801 at Tue Jan 20 21:51:22 2026, MaxMem=  2147483648 cpu:               1.6 elap:               0.1
 (Enter /data/home/wyx/g16/l914.exe)
 RHF ground state
 Two-electron integral symmetry not used.
 MDV=  2147483648 DFT=T DoStab=F Mixed=T DoRPA=T DoScal=F NonHer=T
 NEqPCM:  Using non-equilibrium solvation (IEInf=1, Eps=   7.4257, EpsInf=   1.9740)
 Inv3:  Mode=1 IEnd=    13041675.
 Iteration    1 A*A^-1 deviation from unit magnitude is 4.22D-15 for   1143.
 Iteration    1 A*A^-1 deviation from orthogonality  is 1.53D-15 for   1385    915.
 Iteration    1 A^-1*A deviation from unit magnitude is 3.77D-15 for   1143.
 Iteration    1 A^-1*A deviation from orthogonality  is 1.62D-15 for   1640   1316.
 Making orbital integer symmetry assigments:
    24 initial guesses have been made.
 Convergence on wavefunction:    0.001000000000000
 Davidson Disk Diagonalization:  ConvIn= 1.00D-03 SkipCon=T Conv= 1.00D-03.
 Max sub-space:  2000 roots to seek:    24 dimension of matrix:        23104
 Iteration     1 Dimension    24 NMult     0 NNew     24
 CISAX will form    24 AO SS matrices at one time.
 NMat=    24 NSing=    24 JSym2X= 0.
 FoFJK:  IHMeth= 1 ICntrl=       0 DoSepK=T KAlg= 0 I1Cent=           0 FoldK=F
 IRaf=         1 NMat=      48 IRICut=       1 DoRegI=T DoRafI=F ISym2E= 0 IDoP0=3 IntGTp=3.
 New state      2 was old state      3
 New state      3 was old state      4
 New state      4 was old state      2
 New state      5 was old state      6
 New state      6 was old state      5
 Excitation Energies [eV] at current iteration:
 Root      1 :     3.355947564816322
 Root      2 :     4.113510194087663
 Root      3 :     4.333371529129007
 Root      4 :     5.217949141351409
 Root      5 :     5.835443340882152
 Root      6 :     6.104640527618780
 Root      7 :     6.379943585715958
 Root      8 :     6.654182824814318
 Root      9 :     6.748896361396087
 Root     10 :     6.928062341817206
 Root     11 :     6.993042659703689
 Root     12 :     7.220415537723969
 Root     13 :     7.245292481619646
 Root     14 :     7.284041602315319
 Root     15 :     7.565852788387287
 Root     16 :     7.883483588420300
 Root     17 :     7.980219343020604
 Root     18 :     8.054090338332658
 Root     19 :     8.089637426865174
 Root     20 :     8.283603948970352
 Root     21 :     8.349145122433200
 Root     22 :     8.438043409667777
 Root     23 :     8.576002251371595
 Root     24 :     8.731567648373121
 Iteration     2 Dimension    36 NMult    24 NNew     12
 CISAX will form    12 AO SS matrices at one time.
 NMat=    12 NSing=    12 JSym2X= 0.
 Root      1 not converged, maximum delta is    0.037244150430388
 Root      2 not converged, maximum delta is    0.076150936646908
 Root      3 not converged, maximum delta is    0.085815191630402
 Root      4 not converged, maximum delta is    0.233663079830190
 New state      5 was old state      6
 Root      5 not converged, maximum delta is    0.236347821527514
 New state      6 was old state      5
 Root      6 not converged, maximum delta is    0.082906276264578
 Excitation Energies [eV] at current iteration:
 Root      1 :     2.904207059683568   Change is   -0.451740505132753
 Root      2 :     3.903883091933068   Change is   -0.209627102154595
 Root      3 :     4.080168218895606   Change is   -0.253203310233401
 Root      4 :     4.881179871563195   Change is   -0.336769269788213
 Root      5 :     5.317884456986554   Change is   -0.786756070632226
 Root      6 :     5.732638508682191   Change is   -0.102804832199960
 Iteration     3 Dimension    48 NMult    36 NNew     12
 CISAX will form    12 AO SS matrices at one time.
 NMat=    12 NSing=    12 JSym2X= 0.
 Root      1 not converged, maximum delta is    0.006987355283453
 Root      2 not converged, maximum delta is    0.017712656358156
 Root      3 not converged, maximum delta is    0.013257465167823
 Root      4 not converged, maximum delta is    0.020353131137063
 Root      5 not converged, maximum delta is    0.022034209121229
 Root      6 not converged, maximum delta is    0.007009460367181
 Excitation Energies [eV] at current iteration:
 Root      1 :     2.887249868664569   Change is   -0.016957191018999
 Root      2 :     3.891523200946863   Change is   -0.012359890986206
 Root      3 :     4.066018065202234   Change is   -0.014150153693372
 Root      4 :     4.861563491737230   Change is   -0.019616379825965
 Root      5 :     5.288025896609362   Change is   -0.029858560377192
 Root      6 :     5.728506255098411   Change is   -0.004132253583780
 Iteration     4 Dimension    60 NMult    48 NNew     12
 CISAX will form    12 AO SS matrices at one time.
 NMat=    12 NSing=    12 JSym2X= 0.
 Root      1 not converged, maximum delta is    0.002493382427788
 Root      2 not converged, maximum delta is    0.001924615591309
 Root      3 not converged, maximum delta is    0.002463502843858
 Root      4 not converged, maximum delta is    0.002283833379019
 Root      5 not converged, maximum delta is    0.002908540059012
 Root      6 not converged, maximum delta is    0.001975548756294
 Excitation Energies [eV] at current iteration:
 Root      1 :     2.886007798529302   Change is   -0.001242070135268
 Root      2 :     3.890986333530282   Change is   -0.000536867416580
 Root      3 :     4.065009707691478   Change is   -0.001008357510756
 Root      4 :     4.859625401822154   Change is   -0.001938089915077
 Root      5 :     5.284743789457160   Change is   -0.003282107152202
 Root      6 :     5.728265135343633   Change is   -0.000241119754778
 Iteration     5 Dimension    72 NMult    60 NNew     12
 CISAX will form    12 AO SS matrices at one time.
 NMat=    12 NSing=    12 JSym2X= 0.
 Root      1 has converged.
 Root      2 has converged.
 Root      3 has converged.
 Root      4 has converged.
 Root      5 has converged.
 Root      6 has converged.
 Excitation Energies [eV] at current iteration:
 Root      1 :     2.885946782054472   Change is   -0.000061016474830
 Root      2 :     3.890944191963110   Change is   -0.000042141567172
 Root      3 :     4.064966204725828   Change is   -0.000043502965650
 Root      4 :     4.859488650084897   Change is   -0.000136751737256
 Root      5 :     5.284505065887937   Change is   -0.000238723569222
 Root      6 :     5.728245283404125   Change is   -0.000019851939507
 Convergence achieved on expansion vectors.
 ***********************************************************************
 Excited states from <AA,BB:AA,BB> singles matrix:
 ***********************************************************************
 
 1PDM for each excited state written to RWF  633
 Ground to excited state transition densities written to RWF  633
 Ground to excited state transition electric dipole moments (Au):
       state          X           Y           Z        Dip. S.      Osc.
         1         1.4343      0.3696      0.1193      2.2080      0.1561
         2         0.0304     -0.0303      0.0366      0.0032      0.0003
         3        -0.0932      0.0341     -0.0313      0.0108      0.0011
         4        -0.2709      1.2303     -0.0679      1.5916      0.1895
         5         0.4411     -1.5074      0.0601      2.4704      0.3198
         6         0.0592     -0.1721     -0.0454      0.0352      0.0049
 Ground to excited state transition velocity dipole moments (Au):
       state          X           Y           Z        Dip. S.      Osc.
         1        -0.1454     -0.0407     -0.0118      0.0229      0.1442
         2        -0.0049      0.0045     -0.0020      0.0000      0.0002
         3         0.0126     -0.0031      0.0013      0.0002      0.0008
         4         0.0394     -0.2100      0.0086      0.0457      0.1708
         5        -0.0816      0.2863     -0.0119      0.0888      0.3047
         6        -0.0128      0.0352      0.0296      0.0023      0.0072
 Ground to excited state transition magnetic dipole moments (Au):
       state          X           Y           Z
         1        -0.3568     -0.1895      4.6789
         2         0.7185      0.1411      0.1402
         3         0.5480     -0.8214     -0.4241
         4         0.3179      0.0719     -0.2289
         5        -0.3655     -0.1488      1.1669
         6         0.5667      0.0724      0.1280
 Ground to excited state transition velocity quadrupole moments (Au):
       state          XX          YY          ZZ          XY          XZ          YZ
         1         0.6832     -1.4938     -0.0277     -2.5505     -0.0981     -0.2577
         2         0.0553      0.1871     -0.0175     -0.1140     -0.0084      0.0285
         3        -0.0840     -0.1686      0.0280      0.2062      0.0535      0.0446
         4         0.7699     -8.9623     -0.0055      1.8559      0.0605      0.0853
         5        -0.1966     12.4590      0.0230     -2.7113     -0.0405     -0.0626
         6         0.1206      1.5859     -0.0413     -0.3930     -0.0639      0.5400
 <0|del|b> * <b|rxdel|0> + <0|del|b> * <b|delr+rdel|0>
 Rotatory Strengths (R) in cgs (10**-40 erg-esu-cm/Gauss)
       state          XX          YY          ZZ    R(velocity)    E-M Angle
         1       -71.6300     12.4348     87.1008      9.3018       89.66
         2         1.5520    -10.2218     -6.8096     -5.1598      127.21
         3         5.8100     15.7823     20.6714     14.0879       50.39
         4        23.0515     -4.1413    -36.9265     -6.0054       93.06
         5       -22.8623    -20.6112    -53.6368    -32.3701       94.17
         6        -5.1377      2.1492     -0.0727     -1.0204       91.87
 1/2[<0|r|b>*<b|rxdel|0> + (<0|rxdel|b>*<b|r|0>)*]
 Rotatory Strengths (R) in cgs (10**-40 erg-esu-cm/Gauss)
       state          XX          YY          ZZ     R(length)
         1       361.9115     49.5195   -394.6049      5.6087
         2       -15.4591      3.0215     -3.6297     -5.3558
         3        36.1269     19.8117     -9.3974     15.5137
         4        60.8884    -62.5249    -10.9932     -4.2099
         5       114.0206   -158.5696    -49.5639    -31.3710
         6       -23.7424      8.8101      4.1115     -3.6070
  1/2[<0|del|b>*<b|r|0> + (<0|r|b>*<b|del|0>)*] (Au)
       state          X           Y           Z        Dip. S.   Osc.(frdel)
         1        -0.2085     -0.0151     -0.0014      0.2250      0.1500
         2        -0.0001     -0.0001     -0.0001      0.0004      0.0002
         3        -0.0012     -0.0001     -0.0000      0.0013      0.0009
         4        -0.0107     -0.2584     -0.0006      0.2697      0.1798
         5        -0.0360     -0.4315     -0.0007      0.4682      0.3122
         6        -0.0008     -0.0061     -0.0013      0.0082      0.0054

 Excitation energies and oscillator strengths:
 
 Excited state symmetry could not be determined.
 Excited State   1:      Singlet-?Sym    2.8859 eV  429.61 nm  f=0.1561  <S**2>=0.000
      52 -> 53         0.70232
 This state for optimization and/or second-order correction.
 Total Energy, E(TD-HF/TD-DFT) =  -633.210919981    
 Copying the excited state density for this state as the 1-particle RhoCI density.
 
 Excited state symmetry could not be determined.
 Excited State   2:      Singlet-?Sym    3.8909 eV  318.65 nm  f=0.0003  <S**2>=0.000
      50 -> 54         0.15629
      51 -> 53         0.59290
      51 -> 54         0.31152
 
 Excited state symmetry could not be determined.
 Excited State   3:      Singlet-?Sym    4.0650 eV  305.01 nm  f=0.0011  <S**2>=0.000
      49 -> 53         0.30427
      49 -> 54        -0.16467
      50 -> 53         0.51374
      50 -> 54        -0.23118
      50 -> 58         0.10708
      51 -> 54         0.18971
 
 Excited state symmetry could not be determined.
 Excited State   4:      Singlet-?Sym    4.8595 eV  255.14 nm  f=0.1895  <S**2>=0.000
      52 -> 54         0.69927
 
 Excited state symmetry could not be determined.
 Excited State   5:      Singlet-?Sym    5.2845 eV  234.62 nm  f=0.3198  <S**2>=0.000
      49 -> 53         0.59024
      50 -> 53        -0.35300
 
 Excited state symmetry could not be determined.
 Excited State   6:      Singlet-?Sym    5.7282 eV  216.44 nm  f=0.0049  <S**2>=0.000
      52 -> 55         0.65109
      52 -> 56         0.15349
      52 -> 57         0.13860
      52 -> 62        -0.10647
 SavETr:  write IOETrn=   770 NScale= 10 NData=  16 NLR=1 NState=    6 LETran=     118.
 Leave Link  914 at Tue Jan 20 21:53:08 2026, MaxMem=  2147483648 cpu:            3364.1 elap:             105.9
 (Enter /data/home/wyx/g16/l601.exe)
 Copying SCF densities to generalized density rwf, IOpCl= 0 IROHF=0.

 **********************************************************************

            Population analysis using the SCF density.

 **********************************************************************

 Alpha  occ. eigenvalues --  -19.17799 -19.16849 -14.45000 -10.33368 -10.33088
 Alpha  occ. eigenvalues --  -10.32791 -10.32459 -10.26388 -10.25539 -10.25252
 Alpha  occ. eigenvalues --  -10.24799 -10.24418 -10.24223 -10.23713  -1.11237
 Alpha  occ. eigenvalues --   -1.10590  -1.08672  -0.91455  -0.90557  -0.83950
 Alpha  occ. eigenvalues --   -0.82691  -0.81664  -0.78497  -0.73802  -0.72368
 Alpha  occ. eigenvalues --   -0.68721  -0.61525  -0.58295  -0.57082  -0.55147
 Alpha  occ. eigenvalues --   -0.54657  -0.53996  -0.52451  -0.51732  -0.50868
 Alpha  occ. eigenvalues --   -0.49685  -0.49508  -0.49230  -0.48715  -0.47976
 Alpha  occ. eigenvalues --   -0.47358  -0.45312  -0.45078  -0.44126  -0.43368
 Alpha  occ. eigenvalues --   -0.42094  -0.42028  -0.41395  -0.32545  -0.32151
 Alpha  occ. eigenvalues --   -0.31105  -0.24932
 Alpha virt. eigenvalues --   -0.03525   0.02494   0.06186   0.07984   0.08348
 Alpha virt. eigenvalues --    0.09638   0.10686   0.11347   0.12469   0.13327
 Alpha virt. eigenvalues --    0.13803   0.14794   0.15509   0.16389   0.16926
 Alpha virt. eigenvalues --    0.17380   0.17792   0.18016   0.18534   0.19237
 Alpha virt. eigenvalues --    0.19770   0.21882   0.22617   0.23322   0.23820
 Alpha virt. eigenvalues --    0.24054   0.24665   0.25593   0.26324   0.26705
 Alpha virt. eigenvalues --    0.27406   0.28027   0.28385   0.29615   0.30166
 Alpha virt. eigenvalues --    0.31475   0.31841   0.32202   0.33333   0.33952
 Alpha virt. eigenvalues --    0.34622   0.35622   0.36672   0.37410   0.38509
 Alpha virt. eigenvalues --    0.39597   0.40840   0.41314   0.41733   0.42396
 Alpha virt. eigenvalues --    0.43917   0.44847   0.45495   0.46137   0.46478
 Alpha virt. eigenvalues --    0.47249   0.47624   0.47786   0.48462   0.49129
 Alpha virt. eigenvalues --    0.49640   0.50482   0.51183   0.51224   0.51545
 Alpha virt. eigenvalues --    0.52207   0.52573   0.53203   0.53561   0.54164
 Alpha virt. eigenvalues --    0.54234   0.55156   0.55706   0.56519   0.58108
 Alpha virt. eigenvalues --    0.58346   0.59960   0.61028   0.61884   0.63125
 Alpha virt. eigenvalues --    0.64155   0.64864   0.66191   0.66959   0.67410
 Alpha virt. eigenvalues --    0.68687   0.69118   0.70382   0.70705   0.71921
 Alpha virt. eigenvalues --    0.72794   0.74895   0.75222   0.76115   0.77487
 Alpha virt. eigenvalues --    0.78996   0.80856   0.83531   0.86806   0.87514
 Alpha virt. eigenvalues --    0.91984   0.96115   1.02482   1.04309   1.21675
 Alpha virt. eigenvalues --    1.24064   1.27243   1.27988   1.28859   1.30076
 Alpha virt. eigenvalues --    1.31943   1.33206   1.34556   1.35146   1.36307
 Alpha virt. eigenvalues --    1.36906   1.37803   1.38388   1.38783   1.39372
 Alpha virt. eigenvalues --    1.39864   1.40007   1.40615   1.41321   1.42135
 Alpha virt. eigenvalues --    1.43182   1.43203   1.44149   1.45571   1.47097
 Alpha virt. eigenvalues --    1.48107   1.49310   1.49388   1.50121   1.50826
 Alpha virt. eigenvalues --    1.51343   1.52078   1.53022   1.55695   1.59033
 Alpha virt. eigenvalues --    1.59689   1.59868   1.60984   1.61676   1.62007
 Alpha virt. eigenvalues --    1.62537   1.62796   1.63226   1.64434   1.65550
 Alpha virt. eigenvalues --    1.66187   1.66912   1.67467   1.68043   1.68696
 Alpha virt. eigenvalues --    1.68997   1.69668   1.70302   1.70905   1.72457
 Alpha virt. eigenvalues --    1.74116   1.74499   1.75369   1.76365   1.78460
 Alpha virt. eigenvalues --    1.81507   1.82880   1.83642   1.85466   1.86372
 Alpha virt. eigenvalues --    1.86431   1.87790   1.88590   1.89142   1.90162
 Alpha virt. eigenvalues --    1.91243   1.94231   1.94924   1.98797   1.99719
 Alpha virt. eigenvalues --    2.01564   2.03718   2.05747   2.06789   2.09243
 Alpha virt. eigenvalues --    2.09785   2.11231   2.15710   2.17393   2.19434
 Alpha virt. eigenvalues --    2.20505   2.21125   2.22058   2.22879   2.26281
 Alpha virt. eigenvalues --    2.26643   2.27259   2.29063   2.30757   2.32065
 Alpha virt. eigenvalues --    2.33195   2.34303   2.36818   2.37546   2.38799
 Alpha virt. eigenvalues --    2.39446   2.40100   2.41259   2.42643   2.44950
 Alpha virt. eigenvalues --    2.45357   2.46987   2.48647   2.49262   2.51151
 Alpha virt. eigenvalues --    2.52324   2.53706   2.54377   2.56261   2.57165
 Alpha virt. eigenvalues --    2.58593   2.60787   2.61659   2.62194   2.63312
 Alpha virt. eigenvalues --    2.64624   2.65158   2.66502   2.67242   2.68350
 Alpha virt. eigenvalues --    2.71332   2.71715   2.73905   2.74423   2.75418
 Alpha virt. eigenvalues --    2.76290   2.77245   2.77882   2.78200   2.78809
 Alpha virt. eigenvalues --    2.80657   2.81150   2.83191   2.83613   2.85004
 Alpha virt. eigenvalues --    2.85462   2.86234   2.88557   2.88918   2.92123
 Alpha virt. eigenvalues --    2.97061   2.98369   3.01036   3.06963   3.10479
 Alpha virt. eigenvalues --    3.12054   3.13532   3.18183   3.19342   3.21348
 Alpha virt. eigenvalues --    3.22201   3.23036   3.24895   3.25914   3.26240
 Alpha virt. eigenvalues --    3.29416   3.30258   3.31947   3.34676   3.36457
 Alpha virt. eigenvalues --    3.38212   3.38559   3.38965   3.39226   3.41299
 Alpha virt. eigenvalues --    3.41782   3.43513   3.44563   3.47452   3.47999
 Alpha virt. eigenvalues --    3.49758   3.50268   3.56068   3.58229   3.59658
 Alpha virt. eigenvalues --    3.61383   3.90845   4.00682   4.32749   4.35798
 Alpha virt. eigenvalues --   21.68641  21.80768  22.07566  22.09849  22.11239
 Alpha virt. eigenvalues --   22.14391  22.14781  22.16979  22.18664  22.24887
 Alpha virt. eigenvalues --   22.26789  31.91025  43.64079  43.66888
          Condensed to atoms (all electrons):
               1          2          3          4          5          6
     1  O    7.930853   0.000000  -0.000157   0.000019   0.019543   0.007689
     2  O    0.000000   7.984812   0.000359   0.000010  -0.191566   0.001440
     3  N   -0.000157   0.000359   6.355867   0.367837  -0.121028   0.330132
     4  H    0.000019   0.000010   0.367837   0.414125   0.015920  -0.045384
     5  C    0.019543  -0.191566  -0.121028   0.015920   7.219106  -0.078955
     6  C    0.007689   0.001440   0.330132  -0.045384  -0.078955   5.544414
     7  C   -0.000023  -0.051337   0.394444  -0.036331   0.483898  -0.136556
     8  C   -0.000818   0.695374   0.004173  -0.000928  -0.382435   0.035572
     9  C    0.001547   0.029107   0.017473   0.000275  -0.765371  -0.039109
    10  H    0.007306   0.000023  -0.001040   0.000026  -0.101908   0.028598
    11  H    0.009358   0.000099   0.003097   0.000041  -0.086668  -0.017934
    12  C   -0.231880  -0.003444  -0.088019   0.014300   0.194853  -0.029304
    13  C    0.712395  -0.000012   0.001591   0.000593   0.086495   0.104274
    14  C   -0.000007  -0.006271  -0.032348  -0.010573  -0.086405   0.009840
    15  H   -0.000000   0.004080   0.004394   0.002494   0.023002   0.006280
    16  H    0.000000   0.002325  -0.000775   0.000800  -0.005245  -0.001439
    17  H   -0.000000   0.004109  -0.001684   0.000900  -0.011000  -0.001081
    18  C    0.000338  -0.097179  -0.000474   0.000021  -0.241167  -0.000189
    19  H    0.000001   0.006872   0.000009  -0.000001   0.023877   0.000010
    20  H    0.000218   0.004384   0.000102   0.000001   0.045214  -0.001245
    21  H   -0.000011   0.000629   0.000010  -0.000001   0.001606   0.000169
    22  C   -0.105392   0.000000  -0.000249   0.000117   0.003348  -0.026555
    23  H    0.001415   0.000000   0.000031  -0.000010  -0.000016   0.007246
    24  H    0.005191  -0.000000   0.000256  -0.000057  -0.000758  -0.022431
    25  H    0.006328   0.000000   0.000018  -0.000002  -0.000111  -0.000811
    26  C    0.000669   0.000011  -0.025279  -0.006841   0.000639   0.203702
    27  H   -0.000054  -0.000000  -0.002279   0.000518   0.000353  -0.031371
    28  H   -0.000205  -0.000000   0.000580   0.000679   0.000152  -0.049902
    29  H    0.000021   0.000000   0.002038   0.002403  -0.000306  -0.047443
               7          8          9         10         11         12
     1  O   -0.000023  -0.000818   0.001547   0.007306   0.009358  -0.231880
     2  O   -0.051337   0.695374   0.029107   0.000023   0.000099  -0.003444
     3  N    0.394444   0.004173   0.017473  -0.001040   0.003097  -0.088019
     4  H   -0.036331  -0.000928   0.000275   0.000026   0.000041   0.014300
     5  C    0.483898  -0.382435  -0.765371  -0.101908  -0.086668   0.194853
     6  C   -0.136556   0.035572  -0.039109   0.028598  -0.017934  -0.029304
     7  C    5.433378  -0.251452  -0.239431   0.014122  -0.005918   0.033832
     8  C   -0.251452   5.441625   0.247368  -0.010060   0.000953  -0.057840
     9  C   -0.239431   0.247368   6.445982   0.516940   0.454422  -0.160507
    10  H    0.014122  -0.010060   0.516940   0.549032  -0.054662  -0.104887
    11  H   -0.005918   0.000953   0.454422  -0.054662   0.583615  -0.018800
    12  C    0.033832  -0.057840  -0.160507  -0.104887  -0.018800   7.373595
    13  C    0.021765  -0.010534  -0.222252  -0.000149  -0.010404  -0.533364
    14  C    0.297930  -0.031109   0.003027   0.000312  -0.000483   0.001908
    15  H   -0.087252   0.005291   0.001045  -0.000002   0.000034  -0.001773
    16  H   -0.023264  -0.006335  -0.000246  -0.000054   0.000162   0.000308
    17  H   -0.018782  -0.001479   0.001030   0.000065  -0.000058   0.000144
    18  C   -0.002545   0.326488  -0.001744   0.007334  -0.016005   0.000953
    19  H    0.000115  -0.053388  -0.002623   0.000556   0.000192  -0.000135
    20  H    0.004660  -0.073877  -0.006401  -0.008263   0.003272   0.006877
    21  H   -0.000480  -0.024529  -0.009769  -0.000131   0.000675  -0.002156
    22  C    0.000114  -0.000046   0.010977  -0.002124   0.004187  -0.242283
    23  H   -0.000008   0.000001  -0.001924  -0.000139   0.000179  -0.011191
    24  H   -0.000026   0.000014   0.002138   0.000155  -0.000264   0.065405
    25  H    0.000012   0.000001   0.000304   0.000014  -0.000129   0.018050
    26  C    0.002451   0.000894   0.020559   0.000208  -0.000700  -0.086305
    27  H   -0.000805  -0.000015  -0.000588   0.000035  -0.000002  -0.016923
    28  H   -0.000787   0.000000   0.000137   0.000013  -0.000087  -0.007445
    29  H    0.002885   0.000000  -0.000447  -0.000016   0.000076   0.023008
              13         14         15         16         17         18
     1  O    0.712395  -0.000007  -0.000000   0.000000  -0.000000   0.000338
     2  O   -0.000012  -0.006271   0.004080   0.002325   0.004109  -0.097179
     3  N    0.001591  -0.032348   0.004394  -0.000775  -0.001684  -0.000474
     4  H    0.000593  -0.010573   0.002494   0.000800   0.000900   0.000021
     5  C    0.086495  -0.086405   0.023002  -0.005245  -0.011000  -0.241167
     6  C    0.104274   0.009840   0.006280  -0.001439  -0.001081  -0.000189
     7  C    0.021765   0.297930  -0.087252  -0.023264  -0.018782  -0.002545
     8  C   -0.010534  -0.031109   0.005291  -0.006335  -0.001479   0.326488
     9  C   -0.222252   0.003027   0.001045  -0.000246   0.001030  -0.001744
    10  H   -0.000149   0.000312  -0.000002  -0.000054   0.000065   0.007334
    11  H   -0.010404  -0.000483   0.000034   0.000162  -0.000058  -0.016005
    12  C   -0.533364   0.001908  -0.001773   0.000308   0.000144   0.000953
    13  C    5.628831   0.000156  -0.000044  -0.000006  -0.000005   0.001639
    14  C    0.000156   5.018640   0.389574   0.413465   0.408455   0.000713
    15  H   -0.000044   0.389574   0.582348  -0.027167  -0.025479   0.000212
    16  H   -0.000006   0.413465  -0.027167   0.508014  -0.025547  -0.000162
    17  H   -0.000005   0.408455  -0.025479  -0.025547   0.503103   0.000153
    18  C    0.001639   0.000713   0.000212  -0.000162   0.000153   5.293119
    19  H   -0.000012   0.000027  -0.000004   0.000040  -0.000040   0.397663
    20  H    0.001078   0.000121  -0.000014  -0.000026  -0.000003   0.379682
    21  H   -0.000162  -0.000167  -0.000005   0.000007  -0.000009   0.401884
    22  C    0.262449  -0.000003   0.000002  -0.000000  -0.000000   0.000026
    23  H   -0.020516  -0.000001   0.000000  -0.000000   0.000000  -0.000001
    24  H   -0.101935   0.000003   0.000000  -0.000000   0.000000   0.000000
    25  H   -0.031413   0.000000   0.000000   0.000000  -0.000000  -0.000000
    26  C   -0.052245   0.000314   0.000355  -0.000010  -0.000044   0.000001
    27  H    0.006687  -0.000080  -0.000008   0.000003  -0.000004  -0.000000
    28  H   -0.001178   0.000032  -0.000006  -0.000002   0.000001   0.000000
    29  H   -0.001559  -0.000066   0.000094  -0.000001  -0.000001  -0.000000
              19         20         21         22         23         24
     1  O    0.000001   0.000218  -0.000011  -0.105392   0.001415   0.005191
     2  O    0.006872   0.004384   0.000629   0.000000   0.000000  -0.000000
     3  N    0.000009   0.000102   0.000010  -0.000249   0.000031   0.000256
     4  H   -0.000001   0.000001  -0.000001   0.000117  -0.000010  -0.000057
     5  C    0.023877   0.045214   0.001606   0.003348  -0.000016  -0.000758
     6  C    0.000010  -0.001245   0.000169  -0.026555   0.007246  -0.022431
     7  C    0.000115   0.004660  -0.000480   0.000114  -0.000008  -0.000026
     8  C   -0.053388  -0.073877  -0.024529  -0.000046   0.000001   0.000014
     9  C   -0.002623  -0.006401  -0.009769   0.010977  -0.001924   0.002138
    10  H    0.000556  -0.008263  -0.000131  -0.002124  -0.000139   0.000155
    11  H    0.000192   0.003272   0.000675   0.004187   0.000179  -0.000264
    12  C   -0.000135   0.006877  -0.002156  -0.242283  -0.011191   0.065405
    13  C   -0.000012   0.001078  -0.000162   0.262449  -0.020516  -0.101935
    14  C    0.000027   0.000121  -0.000167  -0.000003  -0.000001   0.000003
    15  H   -0.000004  -0.000014  -0.000005   0.000002   0.000000   0.000000
    16  H    0.000040  -0.000026   0.000007  -0.000000  -0.000000  -0.000000
    17  H   -0.000040  -0.000003  -0.000009  -0.000000   0.000000   0.000000
    18  C    0.397663   0.379682   0.401884   0.000026  -0.000001   0.000000
    19  H    0.510335  -0.025397  -0.010288  -0.000000   0.000000   0.000000
    20  H   -0.025397   0.540232  -0.022278   0.000042  -0.000000  -0.000001
    21  H   -0.010288  -0.022278   0.490351  -0.000010   0.000000   0.000000
    22  C   -0.000000   0.000042  -0.000010   5.443234   0.398898   0.395999
    23  H    0.000000  -0.000000   0.000000   0.398898   0.496782  -0.028088
    24  H    0.000000  -0.000001   0.000000   0.395999  -0.028088   0.551162
    25  H   -0.000000  -0.000001   0.000000   0.380279  -0.008156  -0.022362
    26  C    0.000000  -0.000017   0.000002  -0.035426  -0.008836   0.015887
    27  H    0.000000   0.000000  -0.000000  -0.010471   0.000762  -0.001968
    28  H   -0.000000  -0.000000   0.000000   0.002558   0.000347  -0.006326
    29  H    0.000000   0.000000  -0.000000   0.002140   0.000149   0.000546
              25         26         27         28         29
     1  O    0.006328   0.000669  -0.000054  -0.000205   0.000021
     2  O    0.000000   0.000011  -0.000000  -0.000000   0.000000
     3  N    0.000018  -0.025279  -0.002279   0.000580   0.002038
     4  H   -0.000002  -0.006841   0.000518   0.000679   0.002403
     5  C   -0.000111   0.000639   0.000353   0.000152  -0.000306
     6  C   -0.000811   0.203702  -0.031371  -0.049902  -0.047443
     7  C    0.000012   0.002451  -0.000805  -0.000787   0.002885
     8  C    0.000001   0.000894  -0.000015   0.000000   0.000000
     9  C    0.000304   0.020559  -0.000588   0.000137  -0.000447
    10  H    0.000014   0.000208   0.000035   0.000013  -0.000016
    11  H   -0.000129  -0.000700  -0.000002  -0.000087   0.000076
    12  C    0.018050  -0.086305  -0.016923  -0.007445   0.023008
    13  C   -0.031413  -0.052245   0.006687  -0.001178  -0.001559
    14  C    0.000000   0.000314  -0.000080   0.000032  -0.000066
    15  H    0.000000   0.000355  -0.000008  -0.000006   0.000094
    16  H    0.000000  -0.000010   0.000003  -0.000002  -0.000001
    17  H   -0.000000  -0.000044  -0.000004   0.000001  -0.000001
    18  C   -0.000000   0.000001  -0.000000   0.000000  -0.000000
    19  H   -0.000000   0.000000   0.000000  -0.000000   0.000000
    20  H   -0.000001  -0.000017   0.000000  -0.000000   0.000000
    21  H    0.000000   0.000002  -0.000000   0.000000  -0.000000
    22  C    0.380279  -0.035426  -0.010471   0.002558   0.002140
    23  H   -0.008156  -0.008836   0.000762   0.000347   0.000149
    24  H   -0.022362   0.015887  -0.001968  -0.006326   0.000546
    25  H    0.493440   0.002020   0.000129   0.000481  -0.000033
    26  C    0.002020   5.221910   0.424708   0.434572   0.385407
    27  H    0.000129   0.424708   0.481879  -0.028633  -0.016357
    28  H    0.000481   0.434572  -0.028633   0.503076  -0.023906
    29  H   -0.000033   0.385407  -0.016357  -0.023906   0.518402
 Mulliken charges:
               1
     1  O   -0.364342
     2  O   -0.383826
     3  N   -0.209078
     4  H    0.279049
     5  C   -0.045065
     6  C    0.250344
     7  C    0.165392
     8  C    0.147091
     9  C   -0.301918
    10  H    0.158696
    11  H    0.151753
    12  C   -0.136978
    13  C    0.157838
    14  C   -0.377002
    15  H    0.122550
    16  H    0.165153
    17  H    0.167257
    18  C   -0.450761
    19  H    0.152190
    20  H    0.151638
    21  H    0.174662
    22  C   -0.481808
    23  H    0.173075
    24  H    0.147458
    25  H    0.161941
    26  C   -0.498607
    27  H    0.194485
    28  H    0.175849
    29  H    0.152966
 Sum of Mulliken charges =  -0.00000
 Mulliken charges with hydrogens summed into heavy atoms:
               1
     1  O   -0.364342
     2  O   -0.383826
     3  N    0.069971
     5  C   -0.045065
     6  C    0.250344
     7  C    0.165392
     8  C    0.147091
     9  C    0.008530
    12  C   -0.136978
    13  C    0.157838
    14  C    0.077959
    18  C    0.027729
    22  C    0.000665
    26  C    0.024692
 Electronic spatial extent (au):  <R**2>=          50672.4291
 Charge=              0.0000 electrons
 Dipole moment (field-independent basis, Debye):
    X=              1.2502    Y=              8.6509    Z=              0.4320  Tot=              8.7515
 Quadrupole moment (field-independent basis, Debye-Ang):
   XX=           -108.4324   YY=            121.2275   ZZ=            -83.9548
   XY=              3.7799   XZ=              1.6858   YZ=              7.0651
 Traceless Quadrupole moment (field-independent basis, Debye-Ang):
   XX=            -84.7125   YY=            144.9474   ZZ=            -60.2349
   XY=              3.7799   XZ=              1.6858   YZ=              7.0651
 Octapole moment (field-independent basis, Debye-Ang**2):
  XXX=            541.2349  YYY=            854.1300  ZZZ=            -89.2500  XYY=             28.7479
  XXY=          -1123.6688  XXZ=            -36.8731  XZZ=            131.8491  YZZ=           -942.1826
  YYZ=             77.7160  XYZ=             19.2918
 Hexadecapole moment (field-independent basis, Debye-Ang**3):
 XXXX=          -4695.7503 YYYY=          -5737.7230 ZZZZ=           -234.3866 XXXY=           5418.4967
 XXXZ=             46.0451 YYYX=           1042.9251 YYYZ=            543.0073 ZZZX=              2.6277
 ZZZY=          -1025.2711 XXYY=         -12445.7627 XXZZ=           -661.6111 YYZZ=         -10859.2520
 XXYZ=           -408.1422 YYXZ=            214.8900 ZZXY=           1407.8197
 N-N= 8.980488237520D+02 E-N=-3.271952118217D+03  KE= 6.305549622192D+02
 Leave Link  601 at Tue Jan 20 21:53:14 2026, MaxMem=  2147483648 cpu:               1.1 elap:               0.1
 (Enter /data/home/wyx/g16/l9999.exe)
 Electronic transition elements 
                 1             2             3             4             5 
      1  -0.633211D+03 -0.633174D+03 -0.633168D+03 -0.633138D+03 -0.633123D+03
      2   0.143430D+01  0.304242D-01 -0.932165D-01 -0.270855D+00  0.441091D+00
      3   0.369586D+00 -0.302893D-01  0.341085D-01  0.123029D+01 -0.150738D+01
      4   0.119261D+00  0.365979D-01 -0.313370D-01 -0.679139D-01  0.600629D-01
      5  -0.145390D+00 -0.486462D-02  0.125894D-01  0.393787D-01 -0.816274D-01
      6  -0.407443D-01  0.454572D-02 -0.311900D-02 -0.210040D+00  0.286272D+00
      7  -0.118429D-01 -0.196652D-02  0.125795D-02  0.861953D-02 -0.119304D-01
      8  -0.356813D+00  0.718529D+00  0.548046D+00  0.317890D+00 -0.365540D+00
      9  -0.189470D+00  0.141063D+00 -0.821370D+00  0.718663D-01 -0.148756D+00
     10   0.467889D+01  0.140247D+00 -0.424063D+00 -0.228899D+00  0.116691D+01
     11   0.683191D+00  0.553120D-01 -0.840211D-01  0.769913D+00 -0.196645D+00
     12  -0.149378D+01  0.187094D+00 -0.168617D+00 -0.896229D+01  0.124590D+02
     13  -0.277223D-01 -0.175222D-01  0.279693D-01 -0.548145D-02  0.230287D-01
     14  -0.255049D+01 -0.113964D+00  0.206179D+00  0.185587D+01 -0.271126D+01
     15  -0.981439D-01 -0.838134D-02  0.535122D-01  0.605294D-01 -0.405318D-01
     16  -0.257719D+00  0.284541D-01  0.445677D-01  0.853257D-01 -0.625979D-01
                 6 
      1  -0.633106D+03
      2   0.592490D-01
      3  -0.172141D+00
      4  -0.454373D-01
      5  -0.127874D-01
      6   0.351573D-01
      7   0.296230D-01
      8   0.566661D+00
      9   0.723723D-01
     10   0.127957D+00
     11   0.120637D+00
     12   0.158589D+01
     13  -0.412613D-01
     14  -0.392973D+00
     15  -0.639242D-01
     16   0.540050D+00
 1\1\GINC-CN012\SP\RCAM-B3LYP TD-FC\TZVP\C11H15N1O2\WYX\20-Jan-2026\0\\
 #p CAM-B3LYP/TZVP em=gd3bj TD=NStates=6 SCRF=(Solvent=TetraHydroFuran)
  Geom=Check Guess=Read NoSymm\\Title Card Required\\0,1\O,0,1.39452200
 05,9.8211866469,0.3945305353\O,0,-4.8762889793,9.7402731996,0.18708166
 74\N,0,-2.119093892,12.9160131106,0.2510925989\H,0,-2.4316304625,13.87
 76595666,0.2028378196\C,0,-2.6969141816,10.6323332674,0.1926468445\C,0
 ,-0.7728057445,12.7417115393,0.3864908624\C,0,-3.0923761221,11.9845013
 972,0.1641778763\C,0,-3.6542766842,9.5449293575,0.1822849717\C,0,-1.25
 83982383,10.3215110855,0.2415180553\H,0,-1.0564395505,9.5275944052,0.9
 726277758\H,0,-0.9623615762,9.8094358106,-0.6959598527\C,0,-0.29949732
 16,11.4231421917,0.4441503941\C,0,1.0730758362,10.9925573426,0.6423449
 869\C,0,-4.4829110014,12.5062596591,0.0242602602\H,0,-4.47598769,13.59
 56118672,-0.0332442812\H,0,-4.961492716,12.1128292531,-0.8712659815\H,
 0,-5.1063355443,12.2047306163,0.8641589114\C,0,-3.1463452612,8.1202064
 333,0.2047959073\H,0,-3.9394077773,7.471059059,-0.1588442099\H,0,-2.25
 24203394,7.9653081326,-0.3963472504\H,0,-2.9103362683,7.8240474218,1.2
 303683466\C,0,2.1297812824,11.9200948896,1.1934823237\H,0,2.6331670771
 ,12.4549388249,0.385004468\H,0,1.7360388295,12.6535136314,1.892425968\
 H,0,2.8746018547,11.3078198525,1.6977974643\C,0,0.025601032,14.0039920
 756,0.4113642378\H,0,0.3229548738,14.2927380054,1.4218681424\H,0,0.930
 2988668,13.9110325722,-0.1851100019\H,0,-0.5538933323,14.8288032352,-0
 .0045388403\\Version=ES64L-G16RevA.03\HF=-633.3169766\RMSD=4.133e-09\P
 G=C01 [X(C11H15N1O2)]\\@


 MANHOOD BEGINS BY TRYING TO SHAVE FACE,
 AND ENDS BY TRYING TO SAVE FACE.
 Job cpu time:       0 days  0 hours 58 minutes 34.6 seconds.
 Elapsed time:       0 days  0 hours  1 minutes 51.3 seconds.
 File lengths (MBytes):  RWF=    819 Int=      0 D2E=      0 Chk=     67 Scr=      1
 Normal termination of Gaussian 16 at Tue Jan 20 21:53:16 2026.
