 Entering Gaussian System, Link 0=g16
 Input=DDL-S1min-S1-cLR.gjf
 Output=DDL-S1min-S1-cLR.log
 Initial command:
 /data/home/wyx/g16/l1.exe "/scr/tmp/wyx/13032/Gau-1838024.inp" -scrdir="/scr/tmp/wyx/13032/"
 Entering Link 1 = /data/home/wyx/g16/l1.exe PID=   1838025.
  
 Copyright (c) 1988,1990,1992,1993,1995,1998,2003,2009,2016,
            Gaussian, Inc.  All Rights Reserved.
  
 This is part of the Gaussian(R) 16 program.  It is based on
 the Gaussian(R) 09 system (copyright 2009, Gaussian, Inc.),
 the Gaussian(R) 03 system (copyright 2003, Gaussian, Inc.),
 the Gaussian(R) 98 system (copyright 1998, Gaussian, Inc.),
 the Gaussian(R) 94 system (copyright 1995, Gaussian, Inc.),
 the Gaussian 92(TM) system (copyright 1992, Gaussian, Inc.),
 the Gaussian 90(TM) system (copyright 1990, Gaussian, Inc.),
 the Gaussian 88(TM) system (copyright 1988, Gaussian, Inc.),
 the Gaussian 86(TM) system (copyright 1986, Carnegie Mellon
 University), and the Gaussian 82(TM) system (copyright 1983,
 Carnegie Mellon University). Gaussian is a federally registered
 trademark of Gaussian, Inc.
  
 This software contains proprietary and confidential information,
 including trade secrets, belonging to Gaussian, Inc.
  
 This software is provided under written license and may be
 used, copied, transmitted, or stored only in accord with that
 written license.
  
 The following legend is applicable only to US Government
 contracts under FAR:
  
                    RESTRICTED RIGHTS LEGEND
  
 Use, reproduction and disclosure by the US Government is
 subject to restrictions as set forth in subparagraphs (a)
 and (c) of the Commercial Computer Software - Restricted
 Rights clause in FAR 52.227-19.
  
 Gaussian, Inc.
 340 Quinnipiac St., Bldg. 40, Wallingford CT 06492
  
  
 ---------------------------------------------------------------
 Warning -- This program may not be used in any manner that
 competes with the business of Gaussian, Inc. or will provide
 assistance to any competitor of Gaussian, Inc.  The licensee
 of this program is prohibited from giving any competitor of
 Gaussian, Inc. access to this program.  By using this program,
 the user acknowledges that Gaussian, Inc. is engaged in the
 business of creating and licensing software in the field of
 computational chemistry and represents and warrants to the
 licensee that it is not a competitor of Gaussian, Inc. and that
 it will not use this program in any manner prohibited above.
 ---------------------------------------------------------------
  

 Cite this work as:
 Gaussian 16, Revision A.03,
 M. J. Frisch, G. W. Trucks, H. B. Schlegel, G. E. Scuseria, 
 M. A. Robb, J. R. Cheeseman, G. Scalmani, V. Barone, 
 G. A. Petersson, H. Nakatsuji, X. Li, M. Caricato, A. V. Marenich, 
 J. Bloino, B. G. Janesko, R. Gomperts, B. Mennucci, H. P. Hratchian, 
 J. V. Ortiz, A. F. Izmaylov, J. L. Sonnenberg, D. Williams-Young, 
 F. Ding, F. Lipparini, F. Egidi, J. Goings, B. Peng, A. Petrone, 
 T. Henderson, D. Ranasinghe, V. G. Zakrzewski, J. Gao, N. Rega, 
 G. Zheng, W. Liang, M. Hada, M. Ehara, K. Toyota, R. Fukuda, 
 J. Hasegawa, M. Ishida, T. Nakajima, Y. Honda, O. Kitao, H. Nakai, 
 T. Vreven, K. Throssell, J. A. Montgomery, Jr., J. E. Peralta, 
 F. Ogliaro, M. J. Bearpark, J. J. Heyd, E. N. Brothers, K. N. Kudin, 
 V. N. Staroverov, T. A. Keith, R. Kobayashi, J. Normand, 
 K. Raghavachari, A. P. Rendell, J. C. Burant, S. S. Iyengar, 
 J. Tomasi, M. Cossi, J. M. Millam, M. Klene, C. Adamo, R. Cammi, 
 J. W. Ochterski, R. L. Martin, K. Morokuma, O. Farkas, 
 J. B. Foresman, and D. J. Fox, Gaussian, Inc., Wallingford CT, 2016.
 
 ******************************************
 Gaussian 16:  ES64L-G16RevA.03 25-Dec-2016
                20-Jan-2026 
 ******************************************
 %nprocshared=32
 Will use up to   32 processors via shared memory.
 %mem=16GB
 %oldchk=DDL-S1-opt-freq.chk
 %chk=DDL-S1min-S1-cLR.chk
 Copying data from "DDL-S1-opt-freq.chk" to current chk file "DDL-S1min-S1-cLR.chk"
 IOpt=  2 FromEx=T IUOpen= 4 IOptOp= 5 NList=   0 IFRang= 0 IUIn= 4 IUOut= 2.
 ----------------------------------------------------------------------
 #p CAM-B3LYP/TZVP em=gd3bj TD=(Read,NStates=6,Root=1) SCRF=(Solvent=Te
 traHydroFuran,CorrectedLR,NonEquilibrium=Save) Geom=Check Guess=Read N
 oSymm
 ----------------------------------------------------------------------
 1/29=2,30=1,38=1,172=1/1;
 2/12=2,15=1,40=1/2;
 3/5=19,7=101,11=9,14=-4,25=1,30=1,70=9002201,71=1,72=20,74=-40,116=-2,124=41/1,2,3,8;
 4/5=1/1;
 5/5=2,38=6,53=20/2;
 8/6=1,10=1,107=1,108=6/1;
 9/8=1,15=1,41=6,42=1,49=3,70=2,73=22/14;
 10/5=4,13=10,28=1,31=1,74=20/2;
 6/7=2,8=2,9=2,10=2,22=-1/1;
 99/5=1,9=1/99;
 Leave Link    1 at Tue Jan 20 21:53:17 2026, MaxMem=  2147483648 cpu:               2.0 elap:               0.5
 (Enter /data/home/wyx/g16/l101.exe)
 -------------------
 Title Card Required
 -------------------
 Structure from the checkpoint file:  "DDL-S1min-S1-cLR.chk"
 Charge =  0 Multiplicity = 1
 Redundant internal coordinates found in file.  (old form).
 O,0,1.3945220005,9.8211866469,0.3945305353
 O,0,-4.8762889793,9.7402731996,0.1870816674
 N,0,-2.119093892,12.9160131106,0.2510925989
 H,0,-2.4316304625,13.8776595666,0.2028378196
 C,0,-2.6969141816,10.6323332674,0.1926468445
 C,0,-0.7728057445,12.7417115393,0.3864908624
 C,0,-3.0923761221,11.9845013972,0.1641778763
 C,0,-3.6542766842,9.5449293575,0.1822849717
 C,0,-1.2583982383,10.3215110855,0.2415180553
 H,0,-1.0564395505,9.5275944052,0.9726277758
 H,0,-0.9623615762,9.8094358106,-0.6959598527
 C,0,-0.2994973216,11.4231421917,0.4441503941
 C,0,1.0730758362,10.9925573426,0.6423449869
 C,0,-4.4829110014,12.5062596591,0.0242602602
 H,0,-4.47598769,13.5956118672,-0.0332442812
 H,0,-4.961492716,12.1128292531,-0.8712659815
 H,0,-5.1063355443,12.2047306163,0.8641589114
 C,0,-3.1463452612,8.1202064333,0.2047959073
 H,0,-3.9394077773,7.471059059,-0.1588442099
 H,0,-2.2524203394,7.9653081326,-0.3963472504
 H,0,-2.9103362683,7.8240474218,1.2303683466
 C,0,2.1297812824,11.9200948896,1.1934823237
 H,0,2.6331670771,12.4549388249,0.385004468
 H,0,1.7360388295,12.6535136314,1.892425968
 H,0,2.8746018547,11.3078198525,1.6977974643
 C,0,0.025601032,14.0039920756,0.4113642378
 H,0,0.3229548738,14.2927380054,1.4218681424
 H,0,0.9302988668,13.9110325722,-0.1851100019
 H,0,-0.5538933323,14.8288032352,-0.0045388403
 Recover connectivity data from disk.
 ITRead=  0  0  0  0  0  0  0  0  0  0  0  0  0  0  0  0  0  0  0  0
 ITRead=  0  0  0  0  0  0  0  0  0
 MicOpt= -1 -1 -1 -1 -1 -1 -1 -1 -1 -1 -1 -1 -1 -1 -1 -1 -1 -1 -1 -1
 MicOpt= -1 -1 -1 -1 -1 -1 -1 -1 -1
                           ----------------------------
                           !    Current Parameters    !
                           ! (Angstroms and Degrees)  !
 --------------------------                            --------------------------
 ! Name  Definition              Value                                          !
 --------------------------------------------------------------------------------
 ! R1    R(1,13)                 1.2397                                         !
 ! R2    R(2,8)                  1.2375                                         !
 ! R3    R(3,4)                  1.0123                                         !
 ! R4    R(3,6)                  1.3643                                         !
 ! R5    R(3,7)                  1.35                                           !
 ! R6    R(5,7)                  1.4091                                         !
 ! R7    R(5,8)                  1.4488                                         !
 ! R8    R(5,9)                  1.4725                                         !
 ! R9    R(6,12)                 1.4021                                         !
 ! R10   R(6,26)                 1.4938                                         !
 ! R11   R(7,14)                 1.4918                                         !
 ! R12   R(8,18)                 1.5127                                         !
 ! R13   R(9,10)                 1.098                                          !
 ! R14   R(9,11)                 1.1085                                         !
 ! R15   R(9,12)                 1.4745                                         !
 ! R16   R(12,13)                1.4521                                         !
 ! R17   R(13,22)                1.5102                                         !
 ! R18   R(14,15)                1.0909                                         !
 ! R19   R(14,16)                1.0889                                         !
 ! R20   R(14,17)                1.0886                                         !
 ! R21   R(18,19)                1.0875                                         !
 ! R22   R(18,20)                1.0883                                         !
 ! R23   R(18,21)                1.0933                                         !
 ! R24   R(22,23)                1.0923                                         !
 ! R25   R(22,24)                1.0869                                         !
 ! R26   R(22,25)                1.0881                                         !
 ! R27   R(26,27)                1.0922                                         !
 ! R28   R(26,28)                1.0876                                         !
 ! R29   R(26,29)                1.0905                                         !
 ! A1    A(4,3,6)              115.5163                                         !
 ! A2    A(4,3,7)              115.456                                          !
 ! A3    A(6,3,7)              129.0263                                         !
 ! A4    A(7,5,8)              122.3185                                         !
 ! A5    A(7,5,9)              118.5151                                         !
 ! A6    A(8,5,9)              119.1656                                         !
 ! A7    A(3,6,12)             117.216                                          !
 ! A8    A(3,6,26)             114.9061                                         !
 ! A9    A(12,6,26)            127.8466                                         !
 ! A10   A(3,7,5)              117.2897                                         !
 ! A11   A(3,7,14)             115.8948                                         !
 ! A12   A(5,7,14)             126.8071                                         !
 ! A13   A(2,8,5)              122.2758                                         !
 ! A14   A(2,8,18)             118.6964                                         !
 ! A15   A(5,8,18)             119.0059                                         !
 ! A16   A(5,9,10)             110.7571                                         !
 ! A17   A(5,9,11)             109.2895                                         !
 ! A18   A(5,9,12)             118.8267                                         !
 ! A19   A(10,9,11)            100.3691                                         !
 ! A20   A(10,9,12)            109.2136                                         !
 ! A21   A(11,9,12)            106.7196                                         !
 ! A22   A(6,12,9)             118.5171                                         !
 ! A23   A(6,12,13)            127.1236                                         !
 ! A24   A(9,12,13)            114.3254                                         !
 ! A25   A(1,13,12)            119.8669                                         !
 ! A26   A(1,13,22)            118.1546                                         !
 ! A27   A(12,13,22)           121.943                                          !
 ! A28   A(7,14,15)            110.3828                                         !
 ! A29   A(7,14,16)            111.1268                                         !
 ! A30   A(7,14,17)            111.3819                                         !
 ! A31   A(15,14,16)           108.6765                                         !
 ! A32   A(15,14,17)           108.7178                                         !
 ! A33   A(16,14,17)           106.4238                                         !
 ! A34   A(8,18,19)            108.2017                                         !
 ! A35   A(8,18,20)            113.6795                                         !
 ! A36   A(8,18,21)            109.9733                                         !
 ! A37   A(19,18,20)           109.229                                          !
 ! A38   A(19,18,21)           108.0241                                         !
 ! A39   A(20,18,21)           107.5949                                         !
 ! A40   A(13,22,23)           110.676                                          !
 ! A41   A(13,22,24)           113.3048                                         !
 ! A42   A(13,22,25)           107.6082                                         !
 ! A43   A(23,22,24)           108.21                                           !
 ! A44   A(23,22,25)           107.6452                                         !
 ! A45   A(24,22,25)           109.2451                                         !
 ! A46   A(6,26,27)            112.6012                                         !
 ! A47   A(6,26,28)            111.2991                                         !
 ! A48   A(6,26,29)            110.4123                                         !
 ! A49   A(27,26,28)           107.6699                                         !
 ! A50   A(27,26,29)           107.3126                                         !
 ! A51   A(28,26,29)           107.3091                                         !
 ! D1    D(4,3,6,12)          -179.4101                                         !
 ! D2    D(4,3,6,26)            -1.2829                                         !
 ! D3    D(7,3,6,12)             0.1364                                         !
 ! D4    D(7,3,6,26)           178.2636                                         !
 ! D5    D(4,3,7,5)            178.4176                                         !
 ! D6    D(4,3,7,14)            -0.6009                                         !
 ! D7    D(6,3,7,5)             -1.1291                                         !
 ! D8    D(6,3,7,14)           179.8524                                         !
 ! D9    D(8,5,7,3)            176.4632                                         !
 ! D10   D(8,5,7,14)            -4.6395                                         !
 ! D11   D(9,5,7,3)             -3.2187                                         !
 ! D12   D(9,5,7,14)           175.6786                                         !
 ! D13   D(7,5,8,2)             -2.1508                                         !
 ! D14   D(7,5,8,18)           179.5729                                         !
 ! D15   D(9,5,8,2)            177.5291                                         !
 ! D16   D(9,5,8,18)            -0.7472                                         !
 ! D17   D(7,5,9,10)           135.8671                                         !
 ! D18   D(7,5,9,11)          -114.4643                                         !
 ! D19   D(7,5,9,12)             8.2555                                         !
 ! D20   D(8,5,9,10)           -43.8251                                         !
 ! D21   D(8,5,9,11)            65.8436                                         !
 ! D22   D(8,5,9,12)          -171.4366                                         !
 ! D23   D(3,6,12,9)             5.1113                                         !
 ! D24   D(3,6,12,13)         -177.1364                                         !
 ! D25   D(26,6,12,9)         -172.7375                                         !
 ! D26   D(26,6,12,13)           5.0148                                         !
 ! D27   D(3,6,26,27)          101.355                                          !
 ! D28   D(3,6,26,28)         -137.6354                                         !
 ! D29   D(3,6,26,29)          -18.5692                                         !
 ! D30   D(12,6,26,27)         -80.7542                                         !
 ! D31   D(12,6,26,28)          40.2554                                         !
 ! D32   D(12,6,26,29)         159.3216                                         !
 ! D33   D(3,7,14,15)            2.7292                                         !
 ! D34   D(3,7,14,16)          123.3798                                         !
 ! D35   D(3,7,14,17)         -118.143                                          !
 ! D36   D(5,7,14,15)         -176.1815                                         !
 ! D37   D(5,7,14,16)          -55.5308                                         !
 ! D38   D(5,7,14,17)           62.9464                                         !
 ! D39   D(2,8,18,19)           21.6324                                         !
 ! D40   D(2,8,18,20)          143.1503                                         !
 ! D41   D(2,8,18,21)          -96.1469                                         !
 ! D42   D(5,8,18,19)         -160.0291                                         !
 ! D43   D(5,8,18,20)          -38.5111                                         !
 ! D44   D(5,8,18,21)           82.1917                                         !
 ! D45   D(5,9,12,6)            -9.2283                                         !
 ! D46   D(5,9,12,13)          172.7384                                         !
 ! D47   D(10,9,12,6)         -137.5591                                         !
 ! D48   D(10,9,12,13)          44.4076                                         !
 ! D49   D(11,9,12,6)          114.7606                                         !
 ! D50   D(11,9,12,13)         -63.2727                                         !
 ! D51   D(6,12,13,1)         -164.8253                                         !
 ! D52   D(6,12,13,22)          17.3852                                         !
 ! D53   D(9,12,13,1)           13.0073                                         !
 ! D54   D(9,12,13,22)        -164.7822                                         !
 ! D55   D(1,13,22,23)          91.9875                                         !
 ! D56   D(1,13,22,24)        -146.2599                                         !
 ! D57   D(1,13,22,25)         -25.3796                                         !
 ! D58   D(12,13,22,23)        -90.1866                                         !
 ! D59   D(12,13,22,24)         31.566                                          !
 ! D60   D(12,13,22,25)        152.4463                                         !
 --------------------------------------------------------------------------------
 NAtoms=     29 NQM=       29 NQMF=       0 NMMI=      0 NMMIF=      0
                NMic=       0 NMicF=      0.
                    Isotopes and Nuclear Properties:
 (Nuclear quadrupole moments (NQMom) in fm**2, nuclear magnetic moments (NMagM)
  in nuclear magnetons)

  Atom         1           2           3           4           5           6           7           8           9          10
 IAtWgt=          16          16          14           1          12          12          12          12          12           1
 AtmWgt=  15.9949146  15.9949146  14.0030740   1.0078250  12.0000000  12.0000000  12.0000000  12.0000000  12.0000000   1.0078250
 NucSpn=           0           0           2           1           0           0           0           0           0           1
 AtZEff=   5.6000000   5.6000000   4.5500000   1.0000000   3.6000000   3.6000000   3.6000000   3.6000000   3.6000000   1.0000000
 NQMom=    0.0000000   0.0000000   2.0440000   0.0000000   0.0000000   0.0000000   0.0000000   0.0000000   0.0000000   0.0000000
 NMagM=    0.0000000   0.0000000   0.4037610   2.7928460   0.0000000   0.0000000   0.0000000   0.0000000   0.0000000   2.7928460
 AtZNuc=   8.0000000   8.0000000   7.0000000   1.0000000   6.0000000   6.0000000   6.0000000   6.0000000   6.0000000   1.0000000

  Atom        11          12          13          14          15          16          17          18          19          20
 IAtWgt=           1          12          12          12           1           1           1          12           1           1
 AtmWgt=   1.0078250  12.0000000  12.0000000  12.0000000   1.0078250   1.0078250   1.0078250  12.0000000   1.0078250   1.0078250
 NucSpn=           1           0           0           0           1           1           1           0           1           1
 AtZEff=   1.0000000   3.6000000   3.6000000   3.6000000   1.0000000   1.0000000   1.0000000   3.6000000   1.0000000   1.0000000
 NQMom=    0.0000000   0.0000000   0.0000000   0.0000000   0.0000000   0.0000000   0.0000000   0.0000000   0.0000000   0.0000000
 NMagM=    2.7928460   0.0000000   0.0000000   0.0000000   2.7928460   2.7928460   2.7928460   0.0000000   2.7928460   2.7928460
 AtZNuc=   1.0000000   6.0000000   6.0000000   6.0000000   1.0000000   1.0000000   1.0000000   6.0000000   1.0000000   1.0000000

  Atom        21          22          23          24          25          26          27          28          29
 IAtWgt=           1          12           1           1           1          12           1           1           1
 AtmWgt=   1.0078250  12.0000000   1.0078250   1.0078250   1.0078250  12.0000000   1.0078250   1.0078250   1.0078250
 NucSpn=           1           0           1           1           1           0           1           1           1
 AtZEff=   1.0000000   3.6000000   1.0000000   1.0000000   1.0000000   3.6000000   1.0000000   1.0000000   1.0000000
 NQMom=    0.0000000   0.0000000   0.0000000   0.0000000   0.0000000   0.0000000   0.0000000   0.0000000   0.0000000
 NMagM=    2.7928460   0.0000000   2.7928460   2.7928460   2.7928460   0.0000000   2.7928460   2.7928460   2.7928460
 AtZNuc=   1.0000000   6.0000000   1.0000000   1.0000000   1.0000000   6.0000000   1.0000000   1.0000000   1.0000000
 Leave Link  101 at Tue Jan 20 21:53:21 2026, MaxMem=  2147483648 cpu:               6.4 elap:               0.2
 (Enter /data/home/wyx/g16/l202.exe)
                          Input orientation:                          
 ---------------------------------------------------------------------
 Center     Atomic      Atomic             Coordinates (Angstroms)
 Number     Number       Type             X           Y           Z
 ---------------------------------------------------------------------
      1          8           0        1.394522    9.821187    0.394531
      2          8           0       -4.876289    9.740273    0.187082
      3          7           0       -2.119094   12.916013    0.251093
      4          1           0       -2.431630   13.877660    0.202838
      5          6           0       -2.696914   10.632333    0.192647
      6          6           0       -0.772806   12.741712    0.386491
      7          6           0       -3.092376   11.984501    0.164178
      8          6           0       -3.654277    9.544929    0.182285
      9          6           0       -1.258398   10.321511    0.241518
     10          1           0       -1.056440    9.527594    0.972628
     11          1           0       -0.962362    9.809436   -0.695960
     12          6           0       -0.299497   11.423142    0.444150
     13          6           0        1.073076   10.992557    0.642345
     14          6           0       -4.482911   12.506260    0.024260
     15          1           0       -4.475988   13.595612   -0.033244
     16          1           0       -4.961493   12.112829   -0.871266
     17          1           0       -5.106336   12.204731    0.864159
     18          6           0       -3.146345    8.120206    0.204796
     19          1           0       -3.939408    7.471059   -0.158844
     20          1           0       -2.252420    7.965308   -0.396347
     21          1           0       -2.910336    7.824047    1.230368
     22          6           0        2.129781   11.920095    1.193482
     23          1           0        2.633167   12.454939    0.385004
     24          1           0        1.736039   12.653514    1.892426
     25          1           0        2.874602   11.307820    1.697797
     26          6           0        0.025601   14.003992    0.411364
     27          1           0        0.322955   14.292738    1.421868
     28          1           0        0.930299   13.911033   -0.185110
     29          1           0       -0.553893   14.828803   -0.004539
 ---------------------------------------------------------------------
                    Distance matrix (angstroms):
                    1          2          3          4          5
     1  O    0.000000
     2  O    6.274763   0.000000
     3  N    4.684445   4.206132   0.000000
     4  H    5.579531   4.805681   1.012310   0.000000
     5  C    4.175951   2.354884   2.356371   3.256167   0.000000
     6  C    3.636872   5.087924   1.364260   2.018863   2.861686
     7  C    4.986507   2.866955   1.350017   2.005524   1.409099
     8  C    5.060804   1.237536   3.704825   4.501981   1.448826
     9  C    2.704020   3.664687   2.733556   3.744885   1.472524
    10  H    2.535272   3.905581   3.623704   4.626748   2.126023
    11  H    2.596961   4.012901   3.447573   4.417809   2.115527
    12  C    2.332043   4.883150   2.361539   3.260196   2.536975
    13  C    1.239697   6.096755   3.747360   4.560696   3.813766
    14  C    6.472321   2.798560   2.409768   2.473940   2.594174
    15  H    6.992293   3.882322   2.469342   2.077181   3.463690
    16  H    6.874066   2.599304   3.159751   3.266271   2.907249
    17  H    6.939955   2.566107   3.131355   3.223365   2.954433
    18  C    4.852711   2.370155   4.904809   5.801645   2.552042
    19  H    5.854924   2.479263   5.755790   6.591566   3.414819
    20  H    4.167729   3.221114   4.994641   5.945338   2.767221
    21  H    4.818609   2.936893   5.245299   6.158831   3.001480
    22  C    2.363122   7.406044   4.464627   5.061612   5.094800
    23  H    2.910495   7.987522   4.776453   5.263981   5.636369
    24  H    3.222173   7.424153   4.198206   4.660763   5.159989
    25  H    2.469660   8.050824   5.442080   6.082358   5.810641
    26  C    4.401146   6.500625   2.410208   2.469297   4.339125
    27  H    4.711523   7.020098   3.038040   3.040734   4.901954
    28  H    4.156721   7.158926   3.237149   3.384403   4.904003
    29  H    5.388117   6.679293   2.484747   2.115083   4.716119
                    6          7          8          9         10
     6  C    0.000000
     7  C    2.450142   0.000000
     8  C    4.308595   2.503512   0.000000
     9  C    2.472688   2.476892   2.519290   0.000000
    10  H    3.279414   3.291659   2.715456   1.098004   0.000000
    11  H    3.131433   3.163496   2.843885   1.108478   1.694836
    12  C    1.402131   2.862461   3.853674   1.474497   2.108400
    13  C    2.555833   4.308548   4.965395   2.459011   2.605770
    14  C    3.735175   1.491776   3.079137   3.901001   4.638163
    15  H    3.823464   2.132846   4.138803   4.598708   5.408683
    16  H    4.418432   2.140609   3.068044   4.261457   5.033172
    17  H    4.392721   2.143480   3.106118   4.329067   4.855974
    18  C    5.198559   3.864885   1.512725   2.900247   2.634011
    19  H    6.172887   4.603582   2.120992   3.933596   3.717670
    20  H    5.061237   4.144108   2.189799   2.635649   2.396915
    21  H    5.428129   4.298753   2.147874   3.153419   2.530896
    22  C    3.122707   5.323020   6.333976   3.865419   3.990594
    23  H    3.418025   5.749080   6.931176   4.440313   4.746351
    24  H    2.927443   5.171848   6.453168   4.138887   4.291309
    25  H    4.132693   6.197960   6.930427   4.491686   4.375861
    26  C    1.493795   3.723067   5.785950   3.903610   4.639393
    27  H    2.162956   4.309783   6.316377   4.434473   4.981078
    28  H    2.143503   4.473862   6.341622   4.225763   4.949951
    29  H    2.134661   3.816073   6.129160   4.568649   5.413892
                   11         12         13         14         15
    11  H    0.000000
    12  C    2.084056   0.000000
    13  C    2.708107   1.452116   0.000000
    14  C    4.492866   4.341705   5.791573   0.000000
    15  H    5.207676   4.731871   6.166394   1.090891   0.000000
    16  H    4.618377   4.892871   6.321554   1.088942   1.771056
    17  H    5.034275   4.888045   6.301086   1.088581   1.771220
    18  C    2.904245   4.367061   5.123023   4.588732   5.639564
    19  H    3.823520   5.406617   6.178013   5.067758   6.149296
    20  H    2.270424   4.059182   4.615414   5.076637   6.064356
    21  H    3.383358   4.515319   5.123748   5.084368   6.112196
    22  C    4.193593   2.590339   1.510200   6.740799   6.924478
    23  H    4.592929   3.109441   2.153757   7.125401   7.212222
    24  H    4.697860   2.784730   2.181971   6.495157   6.571532
    25  H    4.764191   3.414650   2.111603   7.640025   7.890606
    26  C    4.449330   2.601452   3.196763   4.766522   4.541889
    27  H    5.122229   3.094828   3.472971   5.314241   5.062923
    28  H    4.546012   2.845693   3.036868   5.596433   5.417609
    29  H    5.083204   3.444498   4.216903   4.564232   4.111497
                   16         17         18         19         20
    16  H    0.000000
    17  H    1.743882   0.000000
    18  C    4.515939   4.578172   0.000000
    19  H    4.806062   4.981556   1.087462   0.000000
    20  H    4.976600   5.263688   1.088333   1.773870   0.000000
    21  H    5.197861   4.913950   1.093256   1.764511   1.760401
    22  C    7.388268   7.249197   6.576790   7.645768   6.113231
    23  H    7.705460   7.758356   7.226697   8.266412   6.681037
    24  H    7.265484   6.933745   6.872892   7.954636   6.567005
    25  H    8.285681   8.074327   6.974363   8.037324   6.468708
    26  C    5.485685   5.457026   6.687514   7.663266   6.504420
    27  H    6.159209   5.843630   7.184529   8.197664   7.069288
    28  H    6.198190   6.360298   7.092582   8.073908   6.747293
    29  H    5.249254   5.325892   7.195130   8.100736   7.081389
                   21         22         23         24         25
    21  H    0.000000
    22  C    6.494748   0.000000
    23  H    7.272567   1.092287   0.000000
    24  H    6.734305   1.086949   1.765387   0.000000
    25  H    6.769097   1.088105   1.759999   1.773442   0.000000
    26  C    6.890734   3.062990   3.033094   2.634945   4.128082
    27  H    7.234280   2.991023   3.128845   2.214788   3.936594
    28  H    7.335220   2.702426   2.311926   2.558657   3.755312
    29  H    7.492958   4.134967   3.993035   3.684311   5.200947
                   26         27         28         29
    26  C    0.000000
    27  H    1.092205   0.000000
    28  H    1.087613   1.759814   0.000000
    29  H    1.090460   1.758086   1.754348   0.000000
 Symmetry turned off by external request.
 Stoichiometry    C11H15NO2
 Framework group  C1[X(C11H15NO2)]
 Deg. of freedom    81
 Full point group                 C1      NOp   1
 Rotational constants (GHZ):           1.0702311           0.4891896           0.3417435
 Leave Link  202 at Tue Jan 20 21:53:21 2026, MaxMem=  2147483648 cpu:               0.1 elap:               0.0
 (Enter /data/home/wyx/g16/l301.exe)
 Standard basis: TZVP (5D, 7F)
 Ernie: Thresh=  0.10000D-02 Tol=  0.10000D-05 Strict=F.
   356 basis functions,   610 primitive gaussians,   370 cartesian basis functions
    52 alpha electrons       52 beta electrons
       nuclear repulsion energy       898.0749139445 Hartrees.
 IExCor=20419 DFT=T Ex+Corr=CAM-B3LYP ExCW=0 ScaHFX=  1.000000
 ScaDFX=  1.000000  1.000000  1.000000  0.810000 ScalE2=  1.000000  1.000000
 IRadAn=      5 IRanWt=     -1 IRanGd=            0 ICorTp=0 IEmpDi=141
 HFx  wShort=  0.000000 wLong=  0.330000 cFull=  0.190000 cShort=  0.000000 cLong=  0.460000
 DFx  wShort=  0.000000 wLong=  0.330000 cFull=  0.190000 cShort=  0.000000 cLong=  0.460000
 NAtoms=   29 NActive=   29 NUniq=   29 SFac= 1.00D+00 NAtFMM=   60 NAOKFM=F Big=F
 Integral buffers will be    131072 words long.
 Raffenetti 1 integral format.
 Two-electron integral symmetry is turned off.
 R6Disp:  Grimme-D3(BJ) Dispersion energy=       -0.0260901925 Hartrees.
 Nuclear repulsion after empirical dispersion term =      898.0488237520 Hartrees.
 ------------------------------------------------------------------------------
 Polarizable Continuum Model (PCM)
 =================================
 Model                : PCM.
 Atomic radii         : UFF (Universal Force Field).
 Polarization charges : Total charges.
 Charge compensation  : None.
 Solution method      : On-the-fly selection.
 Cavity type          : Scaled VdW (van der Waals Surface) (Alpha=1.100).
 Cavity algorithm     : GePol (No added spheres)
                        Default sphere list used, NSphG=   29.
                        Lebedev-Laikov grids with approx.  5.0 points / Ang**2.
                        Smoothing algorithm: York/Karplus (Gamma=1.0000).
                        Polarization charges: spherical gaussians, with
                                              point-specific exponents (IZeta= 3).
                        Self-potential: point-specific (ISelfS= 7).
                        Self-field    : sphere-specific E.n sum rule (ISelfD= 2).
 1st derivatives      : Analytical E(r).r(x)/FMM algorithm (CHGder, D1EAlg=3).
                        Cavity 1st derivative terms included.
 Solvent              : TetraHydroFuran, Eps=   7.425700 Eps(inf)=   1.974025
 ------------------------------------------------------------------------------
 GePol: Number of generator spheres                  =      29
 GePol: Total number of spheres                      =      29
 GePol: Number of exposed spheres                    =      29 (100.00%)
 GePol: Number of points                             =    2085
 GePol: Average weight of points                     =       0.13
 GePol: Minimum weight of points                     =   0.47D-08
 GePol: Maximum weight of points                     =    0.20577
 GePol: Number of points with low weight             =     128
 GePol: Fraction of low-weight points (<1% of avg)   =       6.14%
 GePol: Cavity surface area                          =    270.796 Ang**2
 GePol: Cavity volume                                =    290.059 Ang**3
 Leave Link  301 at Tue Jan 20 21:53:21 2026, MaxMem=  2147483648 cpu:               1.1 elap:               0.0
 (Enter /data/home/wyx/g16/l302.exe)
 NPDir=0 NMtPBC=     1 NCelOv=     1 NCel=       1 NClECP=     1 NCelD=      1
         NCelK=      1 NCelE2=     1 NClLst=     1 CellRange=     0.0.
 One-electron integrals computed using PRISM.
 NBasis=   356 RedAO= T EigKep=  3.81D-05  NBF=   356
 NBsUse=   356 1.00D-06 EigRej= -1.00D+00 NBFU=   356
 Precomputing XC quadrature grid using
 IXCGrd= 4 IRadAn=           5 IRanWt=          -1 IRanGd=           0 AccXCQ= 0.00D+00.
 Generated NRdTot=       0 NPtTot=           0 NUsed=           0 NTot=          32
 NSgBfM=   365   365   365   365   365 MxSgAt=    29 MxSgA2=    29.
 Leave Link  302 at Tue Jan 20 21:53:21 2026, MaxMem=  2147483648 cpu:               6.2 elap:               0.2
 (Enter /data/home/wyx/g16/l303.exe)
 DipDrv:  MaxL=1.
 Leave Link  303 at Tue Jan 20 21:53:22 2026, MaxMem=  2147483648 cpu:               1.1 elap:               0.0
 (Enter /data/home/wyx/g16/l308.exe)
 Leave Link  308 at Tue Jan 20 21:53:22 2026, MaxMem=  2147483648 cpu:               1.3 elap:               0.1
 (Enter /data/home/wyx/g16/l401.exe)
 Initial guess from the checkpoint file:  "DDL-S1min-S1-cLR.chk"
 B after Tr=     0.000000    0.000000    0.000000
         Rot=    1.000000    0.000000    0.000000    0.000000 Ang=   0.00 deg.
 Guess basis will be translated and rotated to current coordinates.
 JPrj=2 DoOrth=T DoCkMO=T.
 Leave Link  401 at Tue Jan 20 21:53:22 2026, MaxMem=  2147483648 cpu:               4.4 elap:               0.2
 (Enter /data/home/wyx/g16/l502.exe)
 Two-electron integral symmetry not used.
 Closed shell SCF:
 Using DIIS extrapolation, IDIIS=  1040.
 NGot=  2147483648 LenX=  2147195087 LenY=  2147057746
 Requested convergence on RMS density matrix=1.00D-08 within 128 cycles.
 Requested convergence on MAX density matrix=1.00D-06.
 Requested convergence on             energy=1.00D-06.
 No special actions if energy rises.
 Fock matrices will be formed incrementally for  20 cycles.

 Cycle   1  Pass 1  IDiag  1:
 FoFJK:  IHMeth= 1 ICntrl=       0 DoSepK=T KAlg= 0 I1Cent=           0 FoldK=F
 IRaf=         1 NMat=       1 IRICut=       1 DoRegI=T DoRafI=F ISym2E= 0 IDoP0=0 IntGTp=1.
 FoFCou: FMM=F IPFlag=           0 FMFlag=      100000 FMFlg1=           0
         NFxFlg=           0 DoJE=T BraDBF=F KetDBF=F FulRan=T
         wScrn=  0.000000 ICntrl=       500 IOpCl=  0 I1Cent=           0 NGrid=           0
         NMat0=    1 NMatS0=      1 NMatT0=    0 NMatD0=    1 NMtDS0=    0 NMtDT0=    0
 Symmetry not used in FoFCou.
 Inv3:  Mode=1 IEnd=    13041675.
 Iteration    1 A*A^-1 deviation from unit magnitude is 3.55D-15 for    752.
 Iteration    1 A*A^-1 deviation from orthogonality  is 2.57D-15 for   1771    204.
 Iteration    1 A^-1*A deviation from unit magnitude is 3.77D-15 for    752.
 Iteration    1 A^-1*A deviation from orthogonality  is 3.00D-15 for   1978    115.
 E= -633.316976573883    
 DIIS: error= 1.22D-08 at cycle   1 NSaved=   1.
 NSaved= 1 IEnMin= 1 EnMin= -633.316976573883     IErMin= 1 ErrMin= 1.22D-08
 ErrMax= 1.22D-08  0.00D+00 EMaxC= 1.00D-01 BMatC= 5.65D-14 BMatP= 5.65D-14
 IDIUse=1 WtCom= 1.00D+00 WtEn= 0.00D+00
 Coeff-Com:  0.100D+01
 Coeff:      0.100D+01
 Gap=     0.214 Goal=   None    Shift=    0.000
 RMSDP=4.14D-09 MaxDP=3.00D-07              OVMax= 1.26D-07

 Error on total polarization charges =  0.01429
 SCF Done:  E(RCAM-B3LYP) =  -633.316976574     A.U. after    1 cycles
            NFock=  1  Conv=0.41D-08     -V/T= 2.0044
 KE= 6.305549622192D+02 PE=-3.271952117893D+03 EE= 1.110031355348D+03
 Leave Link  502 at Tue Jan 20 21:53:26 2026, MaxMem=  2147483648 cpu:             120.8 elap:               4.1
 (Enter /data/home/wyx/g16/l801.exe)
 DoSCS=F DFT=T ScalE2(SS,OS)=  1.000000  1.000000
 ExpMin= 9.52D-02 ExpMax= 2.70D+04 ExpMxC= 9.22D+02 IAcc=3 IRadAn=         5 AccDes= 0.00D+00
 HarFok:  IExCor=  205 AccDes= 0.00D+00 IRadAn=         5 IDoV=-2 UseB2=F ITyADJ=14
 ICtDFT= 12500011 ScaDFX=  1.000000  1.000000  1.000000  1.000000
 Largest valence mixing into a core orbital is  5.58D-05
 Largest core mixing into a valence orbital is  1.13D-05
 Range of M.O.s used for correlation:    15   356
 NBasis=   356 NAE=    52 NBE=    52 NFC=    14 NFV=     0
 NROrb=    342 NOA=    38 NOB=    38 NVA=   304 NVB=   304

 **** Warning!!: The largest alpha MO coefficient is  0.60723633D+02

 Leave Link  801 at Tue Jan 20 21:53:27 2026, MaxMem=  2147483648 cpu:               1.6 elap:               0.1
 (Enter /data/home/wyx/g16/l914.exe)
 RHF ground state
 Two-electron integral symmetry not used.
 MDV=  2147483648 DFT=T DoStab=F Mixed=T DoRPA=T DoScal=F NonHer=T
 NEqPCM:  Using equilibrium solvation (IEInf=0, Eps=   7.4257, EpsInf=   1.9740)
 Making orbital integer symmetry assigments:
 Generating guess from checkpoint file densities.
 PCM Corrected Linear-Response:
 Compute the excitation energies in the ground state reaction field.
 Convergence on wavefunction:    0.000001000000000
 Davidson Disk Diagonalization:  ConvIn= 1.00D-06 SkipCon=T Conv= 1.00D-06.
 Max sub-space:  2000 roots to seek:     6 dimension of matrix:        23104
 Iteration     1 Dimension    12 NMult     0 NNew     12
 CISAX will form    12 AO SS matrices at one time.
 NMat=    12 NSing=    12 JSym2X= 0.
 FoFJK:  IHMeth= 1 ICntrl=       0 DoSepK=T KAlg= 0 I1Cent=           0 FoldK=F
 IRaf=         1 NMat=      24 IRICut=       1 DoRegI=T DoRafI=F ISym2E= 0 IDoP0=3 IntGTp=3.
 FoFCou: FMM=F IPFlag=           0 FMFlag=      100000 FMFlg1=           0
         NFxFlg=           0 DoJE=F BraDBF=F KetDBF=F FulRan=T
         wScrn=  0.000000 ICntrl=       500 IOpCl=  0 I1Cent=           0 NGrid=           0
         NMat0=   12 NMatS0=     12 NMatT0=    0 NMatD0=   12 NMtDS0=    0 NMtDT0=    0
 Symmetry not used in FoFCou.
 Excitation Energies [eV] at current iteration:
 Root      1 :     2.957401228347974
 Root      2 :     3.892987574309227
 Root      3 :     4.067551084934506
 Root      4 :     4.920991957091346
 Root      5 :     5.392644952753453
 Root      6 :     5.751262161794641
 Iteration     2 Dimension    24 NMult    12 NNew     12
 CISAX will form    12 AO SS matrices at one time.
 NMat=    12 NSing=    12 JSym2X= 0.
 Root      1 not converged, maximum delta is    0.008047726280147
 Root      2 not converged, maximum delta is    0.000531499097012
 Root      3 not converged, maximum delta is    0.000849217175754
 Root      4 not converged, maximum delta is    0.020722464529801
 Root      5 not converged, maximum delta is    0.025652671003657
 Root      6 not converged, maximum delta is    0.007137681733394
 Excitation Energies [eV] at current iteration:
 Root      1 :     2.942777728597219   Change is   -0.014623499750755
 Root      2 :     3.892752414478854   Change is   -0.000235159830374
 Root      3 :     4.067237577698636   Change is   -0.000313507235870
 Root      4 :     4.908142685018588   Change is   -0.012849272072757
 Root      5 :     5.362325952368848   Change is   -0.030319000384604
 Root      6 :     5.747544239705640   Change is   -0.003717922089002
 Iteration     3 Dimension    36 NMult    24 NNew     12
 CISAX will form    12 AO SS matrices at one time.
 NMat=    12 NSing=    12 JSym2X= 0.
 Root      1 not converged, maximum delta is    0.003153401514871
 Root      2 not converged, maximum delta is    0.000162035943084
 Root      3 not converged, maximum delta is    0.000286812701334
 Root      4 not converged, maximum delta is    0.002150053797528
 Root      5 not converged, maximum delta is    0.007845230607873
 Root      6 not converged, maximum delta is    0.010814057452375
 Excitation Energies [eV] at current iteration:
 Root      1 :     2.941309264358221   Change is   -0.001468464238997
 Root      2 :     3.892737232927915   Change is   -0.000015181550939
 Root      3 :     4.067212669648915   Change is   -0.000024908049721
 Root      4 :     4.907067182165257   Change is   -0.001075502853332
 Root      5 :     5.358802991448699   Change is   -0.003522960920149
 Root      6 :     5.746752918984280   Change is   -0.000791320721360
 Iteration     4 Dimension    48 NMult    36 NNew     12
 CISAX will form    12 AO SS matrices at one time.
 NMat=    12 NSing=    12 JSym2X= 0.
 Root      1 not converged, maximum delta is    0.000745060774922
 Root      2 not converged, maximum delta is    0.000033376777389
 Root      3 not converged, maximum delta is    0.000070515024539
 Root      4 not converged, maximum delta is    0.000762442434213
 Root      5 not converged, maximum delta is    0.001963617847473
 Root      6 not converged, maximum delta is    0.008254090511849
 Excitation Energies [eV] at current iteration:
 Root      1 :     2.941195209891588   Change is   -0.000114054466634
 Root      2 :     3.892736310801318   Change is   -0.000000922126597
 Root      3 :     4.067210730406400   Change is   -0.000001939242514
 Root      4 :     4.906932457162768   Change is   -0.000134725002488
 Root      5 :     5.358311647887055   Change is   -0.000491343561644
 Root      6 :     5.746526040588109   Change is   -0.000226878396171
 Iteration     5 Dimension    60 NMult    48 NNew     12
 CISAX will form    12 AO SS matrices at one time.
 NMat=    12 NSing=    12 JSym2X= 0.
 Root      1 not converged, maximum delta is    0.000087651841459
 Root      2 not converged, maximum delta is    0.000013702632093
 Root      3 not converged, maximum delta is    0.000019188570851
 Root      4 not converged, maximum delta is    0.000369943343359
 Root      5 not converged, maximum delta is    0.000628747687893
 Root      6 not converged, maximum delta is    0.002811033842703
 Excitation Energies [eV] at current iteration:
 Root      1 :     2.941190504093654   Change is   -0.000004705797933
 Root      2 :     3.892736236993059   Change is   -0.000000073808260
 Root      3 :     4.067210598635064   Change is   -0.000000131771337
 Root      4 :     4.906923650940699   Change is   -0.000008806222069
 Root      5 :     5.358277058631934   Change is   -0.000034589255120
 Root      6 :     5.746480452483981   Change is   -0.000045588104128
 Iteration     6 Dimension    72 NMult    60 NNew     12
 CISAX will form    12 AO SS matrices at one time.
 NMat=    12 NSing=    12 JSym2X= 0.
 Root      1 not converged, maximum delta is    0.000016391557946
 Root      2 not converged, maximum delta is    0.000004959910817
 Root      3 not converged, maximum delta is    0.000007162167048
 Root      4 not converged, maximum delta is    0.000063984750965
 Root      5 not converged, maximum delta is    0.000117159847004
 Root      6 not converged, maximum delta is    0.000449474522348
 Excitation Energies [eV] at current iteration:
 Root      1 :     2.941190244414713   Change is   -0.000000259678941
 Root      2 :     3.892736231688277   Change is   -0.000000005304782
 Root      3 :     4.067210589589047   Change is   -0.000000009046017
 Root      4 :     4.906923001499251   Change is   -0.000000649441448
 Root      5 :     5.358273847032709   Change is   -0.000003211599225
 Root      6 :     5.746475277562025   Change is   -0.000005174921956
 Iteration     7 Dimension    84 NMult    72 NNew     12
 CISAX will form    12 AO SS matrices at one time.
 NMat=    12 NSing=    12 JSym2X= 0.
 Root      1 not converged, maximum delta is    0.000003412601511
 Root      2 has converged.
 Root      3 has converged.
 Root      4 not converged, maximum delta is    0.000020190001233
 Root      5 not converged, maximum delta is    0.000045303297621
 Root      6 not converged, maximum delta is    0.000114907192548
 Excitation Energies [eV] at current iteration:
 Root      1 :     2.941190235079578   Change is   -0.000000009335135
 Root      2 :     3.892736231455111   Change is   -0.000000000233166
 Root      3 :     4.067210589202912   Change is   -0.000000000386135
 Root      4 :     4.906922944203584   Change is   -0.000000057295668
 Root      5 :     5.358273516046285   Change is   -0.000000330986424
 Root      6 :     5.746474507788184   Change is   -0.000000769773841
 Iteration     8 Dimension    92 NMult    84 NNew      8
 CISAX will form     8 AO SS matrices at one time.
 NMat=     8 NSing=     8 JSym2X= 0.
 Root      1 not converged, maximum delta is    0.000001332692674
 Root      2 has converged.
 Root      3 has converged.
 Root      4 not converged, maximum delta is    0.000005998849183
 Root      5 not converged, maximum delta is    0.000018427410121
 Root      6 not converged, maximum delta is    0.000057723986775
 Excitation Energies [eV] at current iteration:
 Root      1 :     2.941190234670552   Change is   -0.000000000409027
 Root      2 :     3.892736231452872   Change is   -0.000000000002239
 Root      3 :     4.067210589183589   Change is   -0.000000000019323
 Root      4 :     4.906922939574458   Change is   -0.000000004629125
 Root      5 :     5.358273485378724   Change is   -0.000000030667561
 Root      6 :     5.746474406619231   Change is   -0.000000101168954
 Iteration     9 Dimension   100 NMult    92 NNew      8
 CISAX will form     8 AO SS matrices at one time.
 NMat=     8 NSing=     8 JSym2X= 0.
 Root      1 has converged.
 Root      2 has converged.
 Root      3 has converged.
 Root      4 not converged, maximum delta is    0.000001666850433
 Root      5 not converged, maximum delta is    0.000006918177271
 Root      6 not converged, maximum delta is    0.000012100288426
 Excitation Energies [eV] at current iteration:
 Root      1 :     2.941190234654928   Change is   -0.000000000015624
 Root      2 :     3.892736231452323   Change is   -0.000000000000549
 Root      3 :     4.067210589182760   Change is   -0.000000000000829
 Root      4 :     4.906922939337248   Change is   -0.000000000237211
 Root      5 :     5.358273482808743   Change is   -0.000000002569982
 Root      6 :     5.746474395394010   Change is   -0.000000011225221
 Iteration    10 Dimension   106 NMult   100 NNew      6
 CISAX will form     6 AO SS matrices at one time.
 NMat=     6 NSing=     6 JSym2X= 0.
 Root      1 has converged.
 Root      2 has converged.
 Root      3 has converged.
 Root      4 has converged.
 Root      5 not converged, maximum delta is    0.000002606920925
 Root      6 not converged, maximum delta is    0.000003128949415
 Excitation Energies [eV] at current iteration:
 Root      1 :     2.941190234654760   Change is   -0.000000000000168
 Root      2 :     3.892736231452133   Change is   -0.000000000000190
 Root      3 :     4.067210589182214   Change is   -0.000000000000545
 Root      4 :     4.906922939324129   Change is   -0.000000000013118
 Root      5 :     5.358273482549338   Change is   -0.000000000259405
 Root      6 :     5.746474394476383   Change is   -0.000000000917627
 Iteration    11 Dimension   110 NMult   106 NNew      4
 CISAX will form     4 AO SS matrices at one time.
 NMat=     4 NSing=     4 JSym2X= 0.
 Root      1 has converged.
 Root      2 has converged.
 Root      3 has converged.
 Root      4 has converged.
 Root      5 has converged.
 Root      6 has converged.
 Excitation Energies [eV] at current iteration:
 Root      1 :     2.941190234654760   Change is    0.000000000000000
 Root      2 :     3.892736231451985   Change is   -0.000000000000148
 Root      3 :     4.067210589182173   Change is   -0.000000000000041
 Root      4 :     4.906922939323778   Change is   -0.000000000000352
 Root      5 :     5.358273482522873   Change is   -0.000000000026465
 Root      6 :     5.746474394414554   Change is   -0.000000000061829
 Convergence achieved on expansion vectors.
 PCM Corrected Linear-Response:
 The state of interest is root number   1
 Excitation energy =    2.9412 eV, Total energy =  -633.208889822    
 Recompute the excitation energies using the linear response reaction field.
 Convergence on wavefunction:    0.000001000000000
 Davidson Disk Diagonalization:  ConvIn= 1.00D-06 SkipCon=T Conv= 1.00D-06.
 Max sub-space:  2000 roots to seek:     6 dimension of matrix:        23104
 Iteration     1 Dimension    12 NMult     0 NNew     12
 CISAX will form    12 AO SS matrices at one time.
 NMat=    12 NSing=    12 JSym2X= 0.
 Excitation Energies [eV] at current iteration:
 Root      1 :     2.837541203329030
 Root      2 :     3.888809998876719
 Root      3 :     4.062374076330796
 Root      4 :     4.801112147911446
 Root      5 :     5.230042254313712
 Root      6 :     5.706566844082660
 Iteration     2 Dimension    24 NMult    12 NNew     12
 CISAX will form    12 AO SS matrices at one time.
 NMat=    12 NSing=    12 JSym2X= 0.
 Root      1 not converged, maximum delta is    0.007474736180914
 Root      2 not converged, maximum delta is    0.000518825517573
 Root      3 not converged, maximum delta is    0.000801338777596
 Root      4 not converged, maximum delta is    0.022774064465075
 Root      5 not converged, maximum delta is    0.021669023360651
 Root      6 not converged, maximum delta is    0.008758395407019
 Excitation Energies [eV] at current iteration:
 Root      1 :     2.825818602723105   Change is   -0.011722600605925
 Root      2 :     3.888607144306894   Change is   -0.000202854569825
 Root      3 :     4.062112270438345   Change is   -0.000261805892452
 Root      4 :     4.782519095024935   Change is   -0.018593052886511
 Root      5 :     5.215395660416049   Change is   -0.014646593897662
 Root      6 :     5.703999337168514   Change is   -0.002567506914147
 Iteration     3 Dimension    36 NMult    24 NNew     12
 CISAX will form    12 AO SS matrices at one time.
 NMat=    12 NSing=    12 JSym2X= 0.
 Root      1 not converged, maximum delta is    0.003437430623472
 Root      2 not converged, maximum delta is    0.000176118096452
 Root      3 not converged, maximum delta is    0.000288416689939
 Root      4 not converged, maximum delta is    0.002924982165897
 Root      5 not converged, maximum delta is    0.006516539364852
 Root      6 not converged, maximum delta is    0.011372430991214
 Excitation Energies [eV] at current iteration:
 Root      1 :     2.824452975136705   Change is   -0.001365627586400
 Root      2 :     3.888594112855024   Change is   -0.000013031451870
 Root      3 :     4.062092337303745   Change is   -0.000019933134600
 Root      4 :     4.780801328832445   Change is   -0.001717766192490
 Root      5 :     5.213446116657454   Change is   -0.001949543758595
 Root      6 :     5.703318716358323   Change is   -0.000680620810190
 Iteration     4 Dimension    48 NMult    36 NNew     12
 CISAX will form    12 AO SS matrices at one time.
 NMat=    12 NSing=    12 JSym2X= 0.
 Root      1 not converged, maximum delta is    0.001038215195789
 Root      2 not converged, maximum delta is    0.000026449725839
 Root      3 not converged, maximum delta is    0.000105605991069
 Root      4 not converged, maximum delta is    0.000965299923183
 Root      5 not converged, maximum delta is    0.001456687926831
 Root      6 not converged, maximum delta is    0.007257602511181
 Excitation Energies [eV] at current iteration:
 Root      1 :     2.824347357376821   Change is   -0.000105617759884
 Root      2 :     3.888593242756248   Change is   -0.000000870098776
 Root      3 :     4.062090884158895   Change is   -0.000001453144850
 Root      4 :     4.780593559261997   Change is   -0.000207769570448
 Root      5 :     5.213196848502823   Change is   -0.000249268154631
 Root      6 :     5.703135736263649   Change is   -0.000182980094675
 Iteration     5 Dimension    60 NMult    48 NNew     12
 CISAX will form    12 AO SS matrices at one time.
 NMat=    12 NSing=    12 JSym2X= 0.
 Root      1 not converged, maximum delta is    0.000065325201702
 Root      2 not converged, maximum delta is    0.000011776751357
 Root      3 not converged, maximum delta is    0.000019412238315
 Root      4 not converged, maximum delta is    0.000354666573270
 Root      5 not converged, maximum delta is    0.000276025619957
 Root      6 not converged, maximum delta is    0.002094254843218
 Excitation Energies [eV] at current iteration:
 Root      1 :     2.824343877273538   Change is   -0.000003480103283
 Root      2 :     3.888593181283856   Change is   -0.000000061472391
 Root      3 :     4.062090785919447   Change is   -0.000000098239448
 Root      4 :     4.780581781236877   Change is   -0.000011778025120
 Root      5 :     5.213182306630192   Change is   -0.000014541872631
 Root      6 :     5.703104527318761   Change is   -0.000031208944888
 Iteration     6 Dimension    72 NMult    60 NNew     12
 CISAX will form    12 AO SS matrices at one time.
 NMat=    12 NSing=    12 JSym2X= 0.
 Root      1 not converged, maximum delta is    0.000014148541269
 Root      2 not converged, maximum delta is    0.000004393148677
 Root      3 not converged, maximum delta is    0.000005256132238
 Root      4 not converged, maximum delta is    0.000079737170967
 Root      5 not converged, maximum delta is    0.000096062948250
 Root      6 not converged, maximum delta is    0.000331841403962
 Excitation Energies [eV] at current iteration:
 Root      1 :     2.824343726451441   Change is   -0.000000150822096
 Root      2 :     3.888593177418007   Change is   -0.000000003865849
 Root      3 :     4.062090780340653   Change is   -0.000000005578794
 Root      4 :     4.780580906996120   Change is   -0.000000874240757
 Root      5 :     5.213180976587330   Change is   -0.000001330042861
 Root      6 :     5.703100906479229   Change is   -0.000003620839532
 Iteration     7 Dimension    84 NMult    72 NNew     12
 CISAX will form    12 AO SS matrices at one time.
 NMat=    12 NSing=    12 JSym2X= 0.
 Root      1 not converged, maximum delta is    0.000002118792087
 Root      2 has converged.
 Root      3 has converged.
 Root      4 not converged, maximum delta is    0.000019582178513
 Root      5 not converged, maximum delta is    0.000031792323131
 Root      6 not converged, maximum delta is    0.000123930191800
 Excitation Energies [eV] at current iteration:
 Root      1 :     2.824343719162030   Change is   -0.000000007289411
 Root      2 :     3.888593177228185   Change is   -0.000000000189822
 Root      3 :     4.062090780069993   Change is   -0.000000000270660
 Root      4 :     4.780580835427696   Change is   -0.000000071568424
 Root      5 :     5.213180852670196   Change is   -0.000000123917135
 Root      6 :     5.703100419673867   Change is   -0.000000486805361
 Iteration     8 Dimension    92 NMult    84 NNew      8
 CISAX will form     8 AO SS matrices at one time.
 NMat=     8 NSing=     8 JSym2X= 0.
 Root      1 has converged.
 Root      2 has converged.
 Root      3 has converged.
 Root      4 not converged, maximum delta is    0.000004917925139
 Root      5 not converged, maximum delta is    0.000007636490515
 Root      6 not converged, maximum delta is    0.000046422130062
 Excitation Energies [eV] at current iteration:
 Root      1 :     2.824343718836762   Change is   -0.000000000325268
 Root      2 :     3.888593177225120   Change is   -0.000000000003066
 Root      3 :     4.062090780058964   Change is   -0.000000000011029
 Root      4 :     4.780580830617335   Change is   -0.000000004810361
 Root      5 :     5.213180843018472   Change is   -0.000000009651723
 Root      6 :     5.703100355011580   Change is   -0.000000064662287
 Iteration     9 Dimension    98 NMult    92 NNew      6
 CISAX will form     6 AO SS matrices at one time.
 NMat=     6 NSing=     6 JSym2X= 0.
 Root      1 has converged.
 Root      2 has converged.
 Root      3 has converged.
 Root      4 not converged, maximum delta is    0.000001596605168
 Root      5 not converged, maximum delta is    0.000003206415939
 Root      6 not converged, maximum delta is    0.000009506805526
 Excitation Energies [eV] at current iteration:
 Root      1 :     2.824343718835947   Change is   -0.000000000000815
 Root      2 :     3.888593177224507   Change is   -0.000000000000613
 Root      3 :     4.062090780058720   Change is   -0.000000000000243
 Root      4 :     4.780580830366392   Change is   -0.000000000250943
 Root      5 :     5.213180842249599   Change is   -0.000000000768873
 Root      6 :     5.703100348408658   Change is   -0.000000006602922
 Iteration    10 Dimension   104 NMult    98 NNew      6
 CISAX will form     6 AO SS matrices at one time.
 NMat=     6 NSing=     6 JSym2X= 0.
 Root      1 has converged.
 Root      2 has converged.
 Root      3 has converged.
 Root      4 has converged.
 Root      5 has converged.
 Root      6 not converged, maximum delta is    0.000002585081029
 Excitation Energies [eV] at current iteration:
 Root      1 :     2.824343718835685   Change is   -0.000000000000262
 Root      2 :     3.888593177224148   Change is   -0.000000000000360
 Root      3 :     4.062090780058559   Change is   -0.000000000000162
 Root      4 :     4.780580830353374   Change is   -0.000000000013018
 Root      5 :     5.213180842183259   Change is   -0.000000000066341
 Root      6 :     5.703100347893670   Change is   -0.000000000514988
 Iteration    11 Dimension   106 NMult   104 NNew      2
 CISAX will form     2 AO SS matrices at one time.
 NMat=     2 NSing=     2 JSym2X= 0.
 Root      1 has converged.
 Root      2 has converged.
 Root      3 has converged.
 Root      4 has converged.
 Root      5 has converged.
 Root      6 has converged.
 Excitation Energies [eV] at current iteration:
 Root      1 :     2.824343718835627   Change is   -0.000000000000058
 Root      2 :     3.888593177224063   Change is   -0.000000000000085
 Root      3 :     4.062090780058559   Change is    0.000000000000000
 Root      4 :     4.780580830353374   Change is    0.000000000000000
 Root      5 :     5.213180842183132   Change is   -0.000000000000126
 Root      6 :     5.703100347859191   Change is   -0.000000000034479
 Convergence achieved on expansion vectors.
 ***********************************************************************
 Excited states from <AA,BB:AA,BB> singles matrix:
 ***********************************************************************
 
 1PDM for each excited state written to RWF  633
 Ground to excited state transition densities written to RWF  633
 Ground to excited state transition electric dipole moments (Au):
       state          X           Y           Z        Dip. S.      Osc.
         1        -1.5861     -0.3813     -0.1282      2.6775      0.1853
         2         0.0337     -0.0382      0.0379      0.0040      0.0004
         3        -0.0995      0.0510     -0.0328      0.0136      0.0014
         4         0.3840     -1.6714      0.0798      2.9474      0.3452
         5         0.4479     -1.4998      0.0476      2.4524      0.3132
         6        -0.0589      0.1810      0.0305      0.0372      0.0052
 Ground to excited state transition velocity dipole moments (Au):
       state          X           Y           Z        Dip. S.      Osc.
         1         0.1576      0.0411      0.0125      0.0267      0.1714
         2        -0.0053      0.0056     -0.0022      0.0001      0.0003
         3         0.0135     -0.0055      0.0015      0.0002      0.0010
         4        -0.0580      0.2824     -0.0106      0.0832      0.3159
         5        -0.0832      0.2817     -0.0098      0.0864      0.3006
         6         0.0127     -0.0369     -0.0267      0.0022      0.0071
 Ground to excited state transition magnetic dipole moments (Au):
       state          X           Y           Z
         1         0.3730      0.1957     -4.9326
         2         0.7186      0.1425      0.1461
         3         0.5576     -0.8244     -0.4346
         4        -0.3987     -0.1089      0.4771
         5        -0.3216     -0.1484      1.2287
         6        -0.4794     -0.0618     -0.1112
 Ground to excited state transition velocity quadrupole moments (Au):
       state          XX          YY          ZZ          XY          XZ          YZ
         1        -0.7621      1.5044      0.0285      2.7791      0.1023      0.2691
         2         0.0580      0.2333     -0.0189     -0.1268     -0.0102      0.0304
         3        -0.0866     -0.2736      0.0302      0.2280      0.0573      0.0501
         4        -0.8468     12.1002      0.0069     -2.4968     -0.0725     -0.0828
         5        -0.0287     12.2900      0.0213     -2.6402     -0.0323     -0.0120
         6        -0.1660     -1.6698      0.0504      0.3845      0.0465     -0.4570
 <0|del|b> * <b|rxdel|0> + <0|del|b> * <b|delr+rdel|0>
 Rotatory Strengths (R) in cgs (10**-40 erg-esu-cm/Gauss)
       state          XX          YY          ZZ    R(velocity)    E-M Angle
         1       -78.5605     16.6158     97.5033     11.8529       89.63
         2         2.0256    -11.3117     -7.1996     -5.4952      123.67
         3        10.8435     17.0997     26.2702     18.0711       44.01
         4        22.2970     -7.1615    -66.2708    -17.0451       94.00
         5       -34.7820    -18.8268    -46.4219    -33.3436       94.13
         6        -5.5521      2.1645      0.4673     -0.9734       92.12
 1/2[<0|r|b>*<b|rxdel|0> + (<0|rxdel|b>*<b|r|0>)*]
 Rotatory Strengths (R) in cgs (10**-40 erg-esu-cm/Gauss)
       state          XX          YY          ZZ     R(length)
         1       418.3400     52.7704   -447.3001      7.9367
         2       -17.1271      3.8530     -3.9159     -5.7300
         3        39.2367     29.7379    -10.0788     19.6320
         4       108.2718   -128.7357    -26.9367    -15.8002
         5       101.8675   -157.3798    -41.3807    -32.2977
         6       -19.9814      7.9052      2.4019     -3.2248
  1/2[<0|del|b>*<b|r|0> + (<0|r|b>*<b|del|0>)*] (Au)
       state          X           Y           Z        Dip. S.   Osc.(frdel)
         1        -0.2500     -0.0157     -0.0016      0.2673      0.1782
         2        -0.0002     -0.0002     -0.0001      0.0005      0.0003
         3        -0.0013     -0.0003     -0.0000      0.0017      0.0011
         4        -0.0223     -0.4721     -0.0008      0.4952      0.3301
         5        -0.0373     -0.4225     -0.0005      0.4603      0.3069
         6        -0.0008     -0.0067     -0.0008      0.0082      0.0055

 Excitation energies and oscillator strengths:
 
 Excited state symmetry could not be determined.
 Excited State   1:      Singlet-?Sym    2.8243 eV  438.98 nm  f=0.1853  <S**2>=0.000
      52 -> 53        -0.70203
 This state for optimization and/or second-order correction.
 Total Energy, E(TD-HF/TD-DFT) =  -633.213183852    
 Copying the excited state density for this state as the 1-particle RhoCI density.
 
 Excited state symmetry could not be determined.
 Excited State   2:      Singlet-?Sym    3.8886 eV  318.84 nm  f=0.0004  <S**2>=0.000
      50 -> 54         0.15652
      51 -> 53         0.59287
      51 -> 54         0.31158
 
 Excited state symmetry could not be determined.
 Excited State   3:      Singlet-?Sym    4.0621 eV  305.22 nm  f=0.0014  <S**2>=0.000
      49 -> 53         0.30267
      49 -> 54        -0.16448
      50 -> 53         0.51459
      50 -> 54        -0.23138
      50 -> 58         0.10732
      51 -> 54         0.19008
 
 Excited state symmetry could not be determined.
 Excited State   4:      Singlet-?Sym    4.7806 eV  259.35 nm  f=0.3452  <S**2>=0.000
      52 -> 54        -0.69704
 
 Excited state symmetry could not be determined.
 Excited State   5:      Singlet-?Sym    5.2132 eV  237.83 nm  f=0.3132  <S**2>=0.000
      49 -> 53         0.59184
      50 -> 53        -0.35182
 
 Excited state symmetry could not be determined.
 Excited State   6:      Singlet-?Sym    5.7031 eV  217.40 nm  f=0.0052  <S**2>=0.000
      52 -> 55        -0.64577
      52 -> 56        -0.17035
      52 -> 57        -0.13841
      52 -> 62         0.10954
 SavETr:  write IOETrn=   770 NScale= 10 NData=  16 NLR=1 NState=    6 LETran=     118.
 The selected state is a singlet.
 CISGrd: IGrad=1 NXY=2 DFT=T
 CISAX will form     1 AO SS matrices at one time.
 NMat=     1 NSing=     1 JSym2X= 0.
 Leave Link  914 at Tue Jan 20 22:00:58 2026, MaxMem=  2147483648 cpu:           14359.0 elap:             451.2
 (Enter /data/home/wyx/g16/l1002.exe)
 Minotr:  Closed shell wavefunction.
          Computing CIS/TDA/TD derivatives.
          Using Z-Vector for PSCF gradient.
          Skipping F1 and S1 gradient terms here.
 NEqPCM:  Using equilibrium solvation (IEInf=0, Eps=   7.4257, EpsInf=   1.9740)
          Frozen-core window.
          Direct CPHF calculation.
          Differentiating once with respect to electric field.
                with respect to dipole field.
          Electric field/nuclear overlap derivatives assumed to be zero.
          Requested convergence is 1.0D-10 RMS, and 1.0D-09 maximum.
          NewPWx=F KeepS1=T KeepF1=T KeepIn=T MapXYZ=F SortEE=F KeepMc=T.
 Two-electron integral symmetry not used.
          MDV=    2147483648 using IRadAn=       5.
          Solving linear equations separately, MaxMat=     384.
          There are     1 degrees of freedom in the 1st order CPHF.  IDoFFX=0 NUNeed=     1.
 FoFJK:  IHMeth= 1 ICntrl=       0 DoSepK=T KAlg= 0 I1Cent=           0 FoldK=F
 IRaf=         1 NMat=       1 IRICut=       1 DoRegI=T DoRafI=F ISym2E= 0 IDoP0=0 IntGTp=1.
 FoFCou: FMM=F IPFlag=           0 FMFlag=      100000 FMFlg1=           0
         NFxFlg=           0 DoJE=T BraDBF=F KetDBF=F FulRan=T
         wScrn=  0.000000 ICntrl=       500 IOpCl=  0 I1Cent=           0 NGrid=           0
         NMat0=    1 NMatS0=      1 NMatT0=    0 NMatD0=    1 NMtDS0=    0 NMtDT0=    0
 Symmetry not used in FoFCou.
 LinEq1:  Iter=  0 NonCon=     1 RMS=3.59D-03 Max=1.63D-01 NDo=     1
 AX will form     1 AO Fock derivatives at one time.
 LinEq1:  Iter=  1 NonCon=     1 RMS=1.49D-03 Max=7.06D-02 NDo=     1
 LinEq1:  Iter=  2 NonCon=     1 RMS=7.05D-04 Max=2.13D-02 NDo=     1
 LinEq1:  Iter=  3 NonCon=     1 RMS=4.36D-04 Max=1.48D-02 NDo=     1
 LinEq1:  Iter=  4 NonCon=     1 RMS=2.08D-04 Max=1.13D-02 NDo=     1
 LinEq1:  Iter=  5 NonCon=     1 RMS=1.04D-04 Max=5.06D-03 NDo=     1
 LinEq1:  Iter=  6 NonCon=     1 RMS=6.56D-05 Max=2.89D-03 NDo=     1
 LinEq1:  Iter=  7 NonCon=     1 RMS=3.20D-05 Max=1.73D-03 NDo=     1
 LinEq1:  Iter=  8 NonCon=     1 RMS=1.48D-05 Max=4.20D-04 NDo=     1
 LinEq1:  Iter=  9 NonCon=     1 RMS=7.09D-06 Max=1.80D-04 NDo=     1
 LinEq1:  Iter= 10 NonCon=     1 RMS=4.02D-06 Max=1.21D-04 NDo=     1
 LinEq1:  Iter= 11 NonCon=     1 RMS=2.27D-06 Max=6.53D-05 NDo=     1
 LinEq1:  Iter= 12 NonCon=     1 RMS=9.69D-07 Max=2.42D-05 NDo=     1
 LinEq1:  Iter= 13 NonCon=     1 RMS=3.87D-07 Max=1.23D-05 NDo=     1
 LinEq1:  Iter= 14 NonCon=     1 RMS=1.41D-07 Max=5.31D-06 NDo=     1
 LinEq1:  Iter= 15 NonCon=     1 RMS=5.98D-08 Max=1.54D-06 NDo=     1
 LinEq1:  Iter= 16 NonCon=     1 RMS=3.38D-08 Max=1.33D-06 NDo=     1
 LinEq1:  Iter= 17 NonCon=     1 RMS=1.31D-08 Max=3.61D-07 NDo=     1
 LinEq1:  Iter= 18 NonCon=     1 RMS=6.15D-09 Max=1.15D-07 NDo=     1
 LinEq1:  Iter= 19 NonCon=     1 RMS=2.36D-09 Max=7.94D-08 NDo=     1
 LinEq1:  Iter= 20 NonCon=     1 RMS=7.74D-10 Max=1.26D-08 NDo=     1
 LinEq1:  Iter= 21 NonCon=     1 RMS=3.62D-10 Max=8.84D-09 NDo=     1
 LinEq1:  Iter= 22 NonCon=     1 RMS=1.20D-10 Max=3.84D-09 NDo=     1
 LinEq1:  Iter= 23 NonCon=     0 RMS=2.68D-11 Max=6.04D-10 NDo=     1
 Linear equations converged to 1.000D-10 1.000D-09 after    23 iterations.
 PCM Corrected Linear-Response - Equilibrium solvation:
 Corrected transition energy               =    2.9239          eV
 Total energy after correction             = -633.209526336     a.u.
 NEqPCM:  Using non-equilibrium solvation (IEInf=1, Eps=   7.4257, EpsInf=   1.9740)
 Inv3:  Mode=1 IEnd=    13041675.
 Iteration    1 A*A^-1 deviation from unit magnitude is 4.44D-15 for   1143.
 Iteration    1 A*A^-1 deviation from orthogonality  is 1.49D-15 for    751    220.
 Iteration    1 A^-1*A deviation from unit magnitude is 3.77D-15 for   1143.
 Iteration    1 A^-1*A deviation from orthogonality  is 1.47D-15 for    562    379.
 NEqSol: Computing the dynamic-inertial partition of the PCM polarization charges.
 End of Minotr F.D. properties file   721 does not exist.
 End of Minotr F.D. properties file   722 does not exist.
 End of Minotr F.D. properties file   788 does not exist.
 Leave Link 1002 at Tue Jan 20 22:02:27 2026, MaxMem=  2147483648 cpu:            2810.7 elap:              88.8
 (Enter /data/home/wyx/g16/l601.exe)
 Copying SCF densities to generalized density rwf, IOpCl= 0 IROHF=0.

 **********************************************************************

            Population analysis using the CI density.

 **********************************************************************

 Alpha  occ. eigenvalues --  -19.17799 -19.16849 -14.45000 -10.33368 -10.33088
 Alpha  occ. eigenvalues --  -10.32791 -10.32459 -10.26388 -10.25539 -10.25252
 Alpha  occ. eigenvalues --  -10.24799 -10.24418 -10.24223 -10.23713  -1.11237
 Alpha  occ. eigenvalues --   -1.10590  -1.08672  -0.91455  -0.90557  -0.83950
 Alpha  occ. eigenvalues --   -0.82691  -0.81664  -0.78497  -0.73802  -0.72368
 Alpha  occ. eigenvalues --   -0.68721  -0.61525  -0.58295  -0.57082  -0.55147
 Alpha  occ. eigenvalues --   -0.54657  -0.53996  -0.52451  -0.51732  -0.50868
 Alpha  occ. eigenvalues --   -0.49685  -0.49508  -0.49230  -0.48715  -0.47976
 Alpha  occ. eigenvalues --   -0.47358  -0.45312  -0.45078  -0.44126  -0.43368
 Alpha  occ. eigenvalues --   -0.42094  -0.42028  -0.41395  -0.32545  -0.32151
 Alpha  occ. eigenvalues --   -0.31105  -0.24932
 Alpha virt. eigenvalues --   -0.03525   0.02494   0.06186   0.07984   0.08348
 Alpha virt. eigenvalues --    0.09638   0.10686   0.11347   0.12469   0.13327
 Alpha virt. eigenvalues --    0.13803   0.14794   0.15509   0.16389   0.16926
 Alpha virt. eigenvalues --    0.17380   0.17792   0.18016   0.18534   0.19237
 Alpha virt. eigenvalues --    0.19770   0.21882   0.22617   0.23322   0.23820
 Alpha virt. eigenvalues --    0.24054   0.24665   0.25593   0.26324   0.26705
 Alpha virt. eigenvalues --    0.27406   0.28027   0.28385   0.29615   0.30166
 Alpha virt. eigenvalues --    0.31475   0.31841   0.32202   0.33333   0.33952
 Alpha virt. eigenvalues --    0.34622   0.35622   0.36672   0.37410   0.38509
 Alpha virt. eigenvalues --    0.39597   0.40840   0.41314   0.41733   0.42396
 Alpha virt. eigenvalues --    0.43917   0.44847   0.45495   0.46137   0.46478
 Alpha virt. eigenvalues --    0.47249   0.47624   0.47786   0.48462   0.49129
 Alpha virt. eigenvalues --    0.49640   0.50482   0.51183   0.51224   0.51545
 Alpha virt. eigenvalues --    0.52207   0.52573   0.53203   0.53561   0.54164
 Alpha virt. eigenvalues --    0.54234   0.55156   0.55706   0.56519   0.58108
 Alpha virt. eigenvalues --    0.58346   0.59960   0.61028   0.61884   0.63125
 Alpha virt. eigenvalues --    0.64155   0.64864   0.66191   0.66959   0.67410
 Alpha virt. eigenvalues --    0.68687   0.69118   0.70382   0.70705   0.71921
 Alpha virt. eigenvalues --    0.72794   0.74895   0.75222   0.76115   0.77487
 Alpha virt. eigenvalues --    0.78996   0.80856   0.83531   0.86806   0.87514
 Alpha virt. eigenvalues --    0.91984   0.96115   1.02482   1.04309   1.21675
 Alpha virt. eigenvalues --    1.24064   1.27243   1.27988   1.28859   1.30076
 Alpha virt. eigenvalues --    1.31943   1.33206   1.34556   1.35146   1.36307
 Alpha virt. eigenvalues --    1.36906   1.37803   1.38388   1.38783   1.39372
 Alpha virt. eigenvalues --    1.39864   1.40007   1.40615   1.41321   1.42135
 Alpha virt. eigenvalues --    1.43182   1.43203   1.44149   1.45571   1.47097
 Alpha virt. eigenvalues --    1.48107   1.49310   1.49388   1.50121   1.50826
 Alpha virt. eigenvalues --    1.51343   1.52078   1.53022   1.55695   1.59033
 Alpha virt. eigenvalues --    1.59689   1.59868   1.60984   1.61676   1.62007
 Alpha virt. eigenvalues --    1.62537   1.62796   1.63226   1.64434   1.65550
 Alpha virt. eigenvalues --    1.66187   1.66912   1.67467   1.68043   1.68696
 Alpha virt. eigenvalues --    1.68997   1.69668   1.70302   1.70905   1.72457
 Alpha virt. eigenvalues --    1.74116   1.74499   1.75369   1.76365   1.78460
 Alpha virt. eigenvalues --    1.81507   1.82880   1.83642   1.85466   1.86372
 Alpha virt. eigenvalues --    1.86431   1.87790   1.88590   1.89142   1.90162
 Alpha virt. eigenvalues --    1.91243   1.94231   1.94924   1.98797   1.99719
 Alpha virt. eigenvalues --    2.01564   2.03718   2.05747   2.06789   2.09243
 Alpha virt. eigenvalues --    2.09785   2.11231   2.15710   2.17393   2.19434
 Alpha virt. eigenvalues --    2.20505   2.21125   2.22058   2.22879   2.26281
 Alpha virt. eigenvalues --    2.26643   2.27259   2.29063   2.30757   2.32065
 Alpha virt. eigenvalues --    2.33195   2.34303   2.36818   2.37546   2.38799
 Alpha virt. eigenvalues --    2.39446   2.40100   2.41259   2.42643   2.44950
 Alpha virt. eigenvalues --    2.45357   2.46987   2.48647   2.49262   2.51151
 Alpha virt. eigenvalues --    2.52324   2.53706   2.54377   2.56261   2.57165
 Alpha virt. eigenvalues --    2.58593   2.60787   2.61659   2.62194   2.63312
 Alpha virt. eigenvalues --    2.64624   2.65158   2.66502   2.67242   2.68350
 Alpha virt. eigenvalues --    2.71332   2.71715   2.73905   2.74423   2.75418
 Alpha virt. eigenvalues --    2.76290   2.77245   2.77882   2.78200   2.78809
 Alpha virt. eigenvalues --    2.80657   2.81150   2.83191   2.83613   2.85004
 Alpha virt. eigenvalues --    2.85462   2.86234   2.88557   2.88918   2.92123
 Alpha virt. eigenvalues --    2.97061   2.98369   3.01036   3.06963   3.10479
 Alpha virt. eigenvalues --    3.12054   3.13532   3.18183   3.19342   3.21348
 Alpha virt. eigenvalues --    3.22201   3.23036   3.24895   3.25914   3.26240
 Alpha virt. eigenvalues --    3.29416   3.30258   3.31947   3.34676   3.36457
 Alpha virt. eigenvalues --    3.38212   3.38559   3.38965   3.39226   3.41299
 Alpha virt. eigenvalues --    3.41782   3.43513   3.44563   3.47452   3.47999
 Alpha virt. eigenvalues --    3.49758   3.50268   3.56068   3.58229   3.59658
 Alpha virt. eigenvalues --    3.61383   3.90845   4.00682   4.32749   4.35798
 Alpha virt. eigenvalues --   21.68641  21.80768  22.07566  22.09849  22.11239
 Alpha virt. eigenvalues --   22.14391  22.14781  22.16979  22.18664  22.24887
 Alpha virt. eigenvalues --   22.26789  31.91025  43.64079  43.66888
          Condensed to atoms (all electrons):
               1          2          3          4          5          6
     1  O    7.985142   0.000000  -0.000214   0.000020   0.025940   0.013959
     2  O    0.000000   8.006855   0.000155   0.000016  -0.200390   0.001339
     3  N   -0.000214   0.000155   6.169315   0.362937  -0.087941   0.349342
     4  H    0.000020   0.000016   0.362937   0.406623   0.016021  -0.042853
     5  C    0.025940  -0.200390  -0.087941   0.016021   7.402215  -0.030246
     6  C    0.013959   0.001339   0.349342  -0.042853  -0.030246   5.946470
     7  C   -0.000315  -0.041931   0.434818  -0.036370   0.300391  -0.228981
     8  C   -0.000875   0.682975   0.003857  -0.000752  -0.431522   0.039815
     9  C    0.004354   0.029449   0.006794  -0.000618  -0.770089  -0.090442
    10  H    0.005045  -0.000142  -0.001176   0.000022  -0.078762   0.020848
    11  H    0.009603  -0.000139   0.000838   0.000053  -0.049260  -0.012166
    12  C   -0.262065  -0.003117  -0.051689   0.014532   0.033472  -0.215075
    13  C    0.702825  -0.000010   0.000261   0.000758   0.101259   0.071662
    14  C   -0.000008  -0.009382  -0.036755  -0.010916  -0.075727   0.012268
    15  H   -0.000000   0.004232   0.004325   0.002622   0.024691   0.006352
    16  H    0.000000  -0.000653  -0.000610   0.000791  -0.001060  -0.000937
    17  H    0.000000   0.002674  -0.002364   0.000930  -0.007709  -0.000796
    18  C    0.000613  -0.099823  -0.000442   0.000024  -0.253652  -0.000662
    19  H    0.000006   0.008630   0.000007  -0.000001   0.028515   0.000009
    20  H    0.000259   0.004390   0.000081   0.000001   0.046813  -0.001186
    21  H   -0.000114   0.002130   0.000007  -0.000001  -0.002958   0.000071
    22  C   -0.109768   0.000000   0.000041   0.000125   0.004349  -0.028309
    23  H    0.002000   0.000000  -0.000005  -0.000010  -0.000065   0.011928
    24  H    0.005406  -0.000000   0.000172  -0.000060  -0.000923  -0.021094
    25  H    0.008469  -0.000000   0.000024  -0.000003  -0.000098  -0.001304
    26  C    0.000483   0.000011  -0.029549  -0.007642   0.000339   0.179432
    27  H   -0.000058   0.000000  -0.003674   0.000532   0.000155  -0.036042
    28  H   -0.000388   0.000000   0.001946   0.000691   0.000051  -0.075345
    29  H    0.000015   0.000000   0.002737   0.002630  -0.000328  -0.054270
               7          8          9         10         11         12
     1  O   -0.000315  -0.000875   0.004354   0.005045   0.009603  -0.262065
     2  O   -0.041931   0.682975   0.029449  -0.000142  -0.000139  -0.003117
     3  N    0.434818   0.003857   0.006794  -0.001176   0.000838  -0.051689
     4  H   -0.036370  -0.000752  -0.000618   0.000022   0.000053   0.014532
     5  C    0.300391  -0.431522  -0.770089  -0.078762  -0.049260   0.033472
     6  C   -0.228981   0.039815  -0.090442   0.020848  -0.012166  -0.215075
     7  C    5.787451  -0.293449  -0.277437   0.008069  -0.004877   0.086485
     8  C   -0.293449   5.528072   0.287302  -0.004253   0.001251  -0.059050
     9  C   -0.277437   0.287302   6.713300   0.477086   0.381978  -0.208110
    10  H    0.008069  -0.004253   0.477086   0.482604  -0.033501  -0.081468
    11  H   -0.004877   0.001251   0.381978  -0.033501   0.498169   0.002708
    12  C    0.086485  -0.059050  -0.208110  -0.081468   0.002708   7.627648
    13  C    0.021440  -0.010861  -0.246161   0.001363   0.000227  -0.511873
    14  C    0.286689  -0.031412   0.003466   0.000008  -0.000118   0.002612
    15  H   -0.087265   0.006181   0.000924   0.000001   0.000022  -0.001853
    16  H   -0.037715  -0.004687  -0.000468  -0.000038   0.000142   0.000666
    17  H   -0.027458  -0.000823   0.001292   0.000054  -0.000057  -0.000332
    18  C   -0.001320   0.324495  -0.002857   0.003388  -0.013688  -0.005810
    19  H    0.000701  -0.057090  -0.005562   0.000667  -0.000177  -0.000679
    20  H    0.005103  -0.075266  -0.003015  -0.006827  -0.000330   0.007443
    21  H    0.000025  -0.031073  -0.009156  -0.000548   0.001302   0.000512
    22  C    0.000148  -0.000048   0.008573  -0.001317   0.003715  -0.274856
    23  H    0.000002   0.000003  -0.003614  -0.000083   0.000088  -0.013738
    24  H    0.000002   0.000016   0.001815   0.000076  -0.000241   0.072544
    25  H    0.000000  -0.000000   0.001998  -0.000059  -0.000144   0.020215
    26  C    0.004711   0.000771   0.030594   0.000067  -0.000762  -0.077698
    27  H   -0.000309  -0.000011  -0.002448   0.000033   0.000018  -0.012263
    28  H   -0.000501  -0.000009   0.002863  -0.000010  -0.000067  -0.001201
    29  H    0.003426   0.000003  -0.000590  -0.000001   0.000032   0.023151
              13         14         15         16         17         18
     1  O    0.702825  -0.000008  -0.000000   0.000000   0.000000   0.000613
     2  O   -0.000010  -0.009382   0.004232  -0.000653   0.002674  -0.099823
     3  N    0.000261  -0.036755   0.004325  -0.000610  -0.002364  -0.000442
     4  H    0.000758  -0.010916   0.002622   0.000791   0.000930   0.000024
     5  C    0.101259  -0.075727   0.024691  -0.001060  -0.007709  -0.253652
     6  C    0.071662   0.012268   0.006352  -0.000937  -0.000796  -0.000662
     7  C    0.021440   0.286689  -0.087265  -0.037715  -0.027458  -0.001320
     8  C   -0.010861  -0.031412   0.006181  -0.004687  -0.000823   0.324495
     9  C   -0.246161   0.003466   0.000924  -0.000468   0.001292  -0.002857
    10  H    0.001363   0.000008   0.000001  -0.000038   0.000054   0.003388
    11  H    0.000227  -0.000118   0.000022   0.000142  -0.000057  -0.013688
    12  C   -0.511873   0.002612  -0.001853   0.000666  -0.000332  -0.005810
    13  C    5.656465   0.000059  -0.000041   0.000007  -0.000019   0.001262
    14  C    0.000059   5.011603   0.383767   0.419534   0.412907   0.000571
    15  H   -0.000041   0.383767   0.589886  -0.027267  -0.025472   0.000249
    16  H    0.000007   0.419534  -0.027267   0.524738  -0.030591  -0.000047
    17  H   -0.000019   0.412907  -0.025472  -0.030591   0.516487   0.000120
    18  C    0.001262   0.000571   0.000249  -0.000047   0.000120   5.336444
    19  H   -0.000037   0.000013  -0.000006  -0.000047  -0.000001   0.390216
    20  H    0.001180   0.000149  -0.000017  -0.000039  -0.000000   0.373717
    21  H    0.000037  -0.000218  -0.000005   0.000043  -0.000058   0.398378
    22  C    0.286437   0.000006   0.000001   0.000000  -0.000000   0.000015
    23  H   -0.022436   0.000000  -0.000000   0.000000  -0.000000  -0.000003
    24  H   -0.107352   0.000002   0.000000   0.000000   0.000000  -0.000001
    25  H   -0.032986   0.000000   0.000000  -0.000000   0.000000   0.000004
    26  C   -0.050779  -0.000312   0.000442  -0.000110   0.000029   0.000032
    27  H    0.005374  -0.000077  -0.000008   0.000010  -0.000014  -0.000002
    28  H    0.000877  -0.000005  -0.000005  -0.000007   0.000004   0.000003
    29  H   -0.000791   0.000034   0.000064  -0.000010   0.000003   0.000000
              19         20         21         22         23         24
     1  O    0.000006   0.000259  -0.000114  -0.109768   0.002000   0.005406
     2  O    0.008630   0.004390   0.002130   0.000000   0.000000  -0.000000
     3  N    0.000007   0.000081   0.000007   0.000041  -0.000005   0.000172
     4  H   -0.000001   0.000001  -0.000001   0.000125  -0.000010  -0.000060
     5  C    0.028515   0.046813  -0.002958   0.004349  -0.000065  -0.000923
     6  C    0.000009  -0.001186   0.000071  -0.028309   0.011928  -0.021094
     7  C    0.000701   0.005103   0.000025   0.000148   0.000002   0.000002
     8  C   -0.057090  -0.075266  -0.031073  -0.000048   0.000003   0.000016
     9  C   -0.005562  -0.003015  -0.009156   0.008573  -0.003614   0.001815
    10  H    0.000667  -0.006827  -0.000548  -0.001317  -0.000083   0.000076
    11  H   -0.000177  -0.000330   0.001302   0.003715   0.000088  -0.000241
    12  C   -0.000679   0.007443   0.000512  -0.274856  -0.013738   0.072544
    13  C   -0.000037   0.001180   0.000037   0.286437  -0.022436  -0.107352
    14  C    0.000013   0.000149  -0.000218   0.000006   0.000000   0.000002
    15  H   -0.000006  -0.000017  -0.000005   0.000001  -0.000000   0.000000
    16  H   -0.000047  -0.000039   0.000043   0.000000   0.000000   0.000000
    17  H   -0.000001  -0.000000  -0.000058  -0.000000  -0.000000   0.000000
    18  C    0.390216   0.373717   0.398378   0.000015  -0.000003  -0.000001
    19  H    0.524883  -0.023596  -0.016900  -0.000001  -0.000000  -0.000000
    20  H   -0.023596   0.548226  -0.023689   0.000037  -0.000000  -0.000001
    21  H   -0.016900  -0.023689   0.510676  -0.000002   0.000000   0.000000
    22  C   -0.000001   0.000037  -0.000002   5.468613   0.398535   0.392660
    23  H   -0.000000  -0.000000   0.000000   0.398535   0.510066  -0.027777
    24  H   -0.000000  -0.000001   0.000000   0.392660  -0.027777   0.557331
    25  H    0.000000  -0.000000  -0.000001   0.370175  -0.012177  -0.021938
    26  C    0.000001  -0.000017  -0.000003  -0.036806  -0.009528   0.014486
    27  H   -0.000000   0.000000   0.000000  -0.010068   0.002159  -0.002596
    28  H    0.000000   0.000000  -0.000000   0.001316  -0.002689  -0.006189
    29  H    0.000000  -0.000000  -0.000000   0.001989   0.000004   0.000642
              25         26         27         28         29
     1  O    0.008469   0.000483  -0.000058  -0.000388   0.000015
     2  O   -0.000000   0.000011   0.000000   0.000000   0.000000
     3  N    0.000024  -0.029549  -0.003674   0.001946   0.002737
     4  H   -0.000003  -0.007642   0.000532   0.000691   0.002630
     5  C   -0.000098   0.000339   0.000155   0.000051  -0.000328
     6  C   -0.001304   0.179432  -0.036042  -0.075345  -0.054270
     7  C    0.000000   0.004711  -0.000309  -0.000501   0.003426
     8  C   -0.000000   0.000771  -0.000011  -0.000009   0.000003
     9  C    0.001998   0.030594  -0.002448   0.002863  -0.000590
    10  H   -0.000059   0.000067   0.000033  -0.000010  -0.000001
    11  H   -0.000144  -0.000762   0.000018  -0.000067   0.000032
    12  C    0.020215  -0.077698  -0.012263  -0.001201   0.023151
    13  C   -0.032986  -0.050779   0.005374   0.000877  -0.000791
    14  C    0.000000  -0.000312  -0.000077  -0.000005   0.000034
    15  H    0.000000   0.000442  -0.000008  -0.000005   0.000064
    16  H   -0.000000  -0.000110   0.000010  -0.000007  -0.000010
    17  H    0.000000   0.000029  -0.000014   0.000004   0.000003
    18  C    0.000004   0.000032  -0.000002   0.000003   0.000000
    19  H    0.000000   0.000001  -0.000000   0.000000   0.000000
    20  H   -0.000000  -0.000017   0.000000   0.000000  -0.000000
    21  H   -0.000001  -0.000003   0.000000  -0.000000  -0.000000
    22  C    0.370175  -0.036806  -0.010068   0.001316   0.001989
    23  H   -0.012177  -0.009528   0.002159  -0.002689   0.000004
    24  H   -0.021938   0.014486  -0.002596  -0.006189   0.000642
    25  H    0.509242   0.002239  -0.000363   0.001037  -0.000022
    26  C    0.002239   5.217291   0.419108   0.445324   0.389958
    27  H   -0.000363   0.419108   0.517208  -0.039109  -0.019572
    28  H    0.001037   0.445324  -0.039109   0.525307  -0.021464
    29  H   -0.000022   0.389958  -0.019572  -0.021464   0.527091
 Mulliken charges:
               1
     1  O   -0.390335
     2  O   -0.387271
     3  N   -0.123239
     4  H    0.289898
     5  C    0.006519
     6  C    0.186215
     7  C    0.098465
     8  C    0.126438
     9  C   -0.331223
    10  H    0.208854
    11  H    0.215382
    12  C   -0.111111
    13  C    0.131855
    14  C   -0.368759
    15  H    0.118177
    16  H    0.158354
    17  H    0.161192
    18  C   -0.451223
    19  H    0.150448
    20  H    0.146583
    21  H    0.171543
    22  C   -0.475561
    23  H    0.167342
    24  H    0.143022
    25  H    0.155694
    26  C   -0.492112
    27  H    0.182017
    28  H    0.167569
    29  H    0.145269
 Sum of Mulliken charges =  -0.00000
 Mulliken charges with hydrogens summed into heavy atoms:
               1
     1  O   -0.390335
     2  O   -0.387271
     3  N    0.166659
     5  C    0.006519
     6  C    0.186215
     7  C    0.098465
     8  C    0.126438
     9  C    0.093013
    12  C   -0.111111
    13  C    0.131855
    14  C    0.068964
    18  C    0.017351
    22  C   -0.009504
    26  C    0.002743
 Electronic spatial extent (au):  <R**2>=          50682.0129
 Charge=             -0.0000 electrons
 Dipole moment (field-independent basis, Debye):
    X=              0.6131    Y=              8.3024    Z=              0.1771  Tot=              8.3269
 Quadrupole moment (field-independent basis, Debye-Ang):
   XX=           -112.2141   YY=            112.3608   ZZ=            -84.1969
   XY=             -4.3065   XZ=              1.1406   YZ=              4.1916
 Traceless Quadrupole moment (field-independent basis, Debye-Ang):
   XX=            -84.1974   YY=            140.3776   ZZ=            -56.1802
   XY=             -4.3065   XZ=              1.1406   YZ=              4.1916
 Octapole moment (field-independent basis, Debye-Ang**2):
  XXX=            556.5857  YYY=            686.3112  ZZZ=            -90.2290  XYY=            -73.7468
  XXY=          -1162.2903  XXZ=            -37.3792  XZZ=            131.1822  YZZ=           -945.8495
  YYZ=             43.8623  XYZ=             12.6067
 Hexadecapole moment (field-independent basis, Debye-Ang**3):
 XXXX=          -4804.2035 YYYY=          -8561.1006 ZZZZ=           -236.4076 XXXY=           5581.1578
 XXXZ=             44.3048 YYYX=           -268.7881 YYYZ=            127.0653 ZZZX=              0.4255
 ZZZY=          -1037.0034 XXYY=         -12847.7268 XXZZ=           -667.6294 YYZZ=         -10913.8844
 XXYZ=           -412.1555 YYXZ=            132.9152 ZZXY=           1399.1428
 N-N= 8.980488237520D+02 E-N=-3.271555052473D+03  KE= 6.306035710772D+02
 No NMR shielding tensors so no spin-rotation constants.
 Leave Link  601 at Tue Jan 20 22:02:28 2026, MaxMem=  2147483648 cpu:               3.6 elap:               0.1
 (Enter /data/home/wyx/g16/l9999.exe)
 Electronic transition elements 
                 1             2             3             4             5 
      1  -0.633213D+03 -0.633174D+03 -0.633168D+03 -0.633141D+03 -0.633125D+03
      2  -0.158610D+01  0.337047D-01 -0.995004D-01  0.383982D+00  0.447930D+00
      3  -0.381296D+00 -0.382404D-01  0.510123D-01 -0.167139D+01 -0.149984D+01
      4  -0.128233D+00  0.379017D-01 -0.327915D-01  0.798399D-01  0.476227D-01
      5   0.157625D+00 -0.531145D-02  0.134847D-01 -0.579533D-01 -0.832096D-01
      6   0.410905D-01  0.563533D-02 -0.553747D-02  0.282448D+00  0.281722D+00
      7   0.124908D-01 -0.217428D-02  0.147284D-02 -0.105808D-01 -0.981206D-02
      8   0.372974D+00  0.718573D+00  0.557631D+00 -0.398735D+00 -0.321592D+00
      9   0.195707D+00  0.142480D+00 -0.824356D+00 -0.108918D+00 -0.148383D+00
     10  -0.493264D+01  0.146100D+00 -0.434637D+00  0.477094D+00  0.122875D+01
     11  -0.762088D+00  0.579764D-01 -0.866325D-01 -0.846782D+00 -0.286502D-01
     12   0.150439D+01  0.233350D+00 -0.273572D+00  0.121002D+02  0.122900D+02
     13   0.284845D-01 -0.188965D-01  0.301746D-01  0.688016D-02  0.212716D-01
     14   0.277912D+01 -0.126806D+00  0.228020D+00 -0.249684D+01 -0.264019D+01
     15   0.102302D+00 -0.102347D-01  0.573365D-01 -0.724793D-01 -0.323286D-01
     16   0.269080D+00  0.304355D-01  0.501176D-01 -0.828328D-01 -0.120399D-01
                 6 
      1  -0.633107D+03
      2  -0.589435D-01
      3   0.181008D+00
      4   0.305395D-01
      5   0.127446D-01
      6  -0.368904D-01
      7  -0.266641D-01
      8  -0.479368D+00
      9  -0.617580D-01
     10  -0.111219D+00
     11  -0.166026D+00
     12  -0.166983D+01
     13   0.504414D-01
     14   0.384452D+00
     15   0.465218D-01
     16  -0.457002D+00
 1\1\GINC-CN012\SP\RCAM-B3LYP TD-FC\TZVP\C11H15N1O2\WYX\20-Jan-2026\0\\
 #p CAM-B3LYP/TZVP em=gd3bj TD=(Read,NStates=6,Root=1) SCRF=(Solvent=Te
 traHydroFuran,CorrectedLR,NonEquilibrium=Save) Geom=Check Guess=Read N
 oSymm\\Title Card Required\\0,1\O,0,1.3945220005,9.8211866469,0.394530
 5353\O,0,-4.8762889793,9.7402731996,0.1870816674\N,0,-2.119093892,12.9
 160131106,0.2510925989\H,0,-2.4316304625,13.8776595666,0.2028378196\C,
 0,-2.6969141816,10.6323332674,0.1926468445\C,0,-0.7728057445,12.741711
 5393,0.3864908624\C,0,-3.0923761221,11.9845013972,0.1641778763\C,0,-3.
 6542766842,9.5449293575,0.1822849717\C,0,-1.2583982383,10.3215110855,0
 .2415180553\H,0,-1.0564395505,9.5275944052,0.9726277758\H,0,-0.9623615
 762,9.8094358106,-0.6959598527\C,0,-0.2994973216,11.4231421917,0.44415
 03941\C,0,1.0730758362,10.9925573426,0.6423449869\C,0,-4.4829110014,12
 .5062596591,0.0242602602\H,0,-4.47598769,13.5956118672,-0.0332442812\H
 ,0,-4.961492716,12.1128292531,-0.8712659815\H,0,-5.1063355443,12.20473
 06163,0.8641589114\C,0,-3.1463452612,8.1202064333,0.2047959073\H,0,-3.
 9394077773,7.471059059,-0.1588442099\H,0,-2.2524203394,7.9653081326,-0
 .3963472504\H,0,-2.9103362683,7.8240474218,1.2303683466\C,0,2.12978128
 24,11.9200948896,1.1934823237\H,0,2.6331670771,12.4549388249,0.3850044
 68\H,0,1.7360388295,12.6535136314,1.892425968\H,0,2.8746018547,11.3078
 198525,1.6977974643\C,0,0.025601032,14.0039920756,0.4113642378\H,0,0.3
 229548738,14.2927380054,1.4218681424\H,0,0.9302988668,13.9110325722,-0
 .1851100019\H,0,-0.5538933323,14.8288032352,-0.0045388403\\Version=ES6
 4L-G16RevA.03\HF=-633.3169766\RMSD=4.137e-09\Dipole=0.241218,3.266416,
 0.0696922\Quadrupole=-62.5986996,104.3672774,-41.7685778,-3.2017966,0.
 8480141,3.1163358\PG=C01 [X(C11H15N1O2)]\\@


 When cryptography is outlawed, bayl bhgynjf jvyy unir cevinpl.
 Job cpu time:       0 days  4 hours 48 minutes 39.5 seconds.
 Elapsed time:       0 days  0 hours  9 minutes  5.6 seconds.
 File lengths (MBytes):  RWF=    643 Int=      0 D2E=      0 Chk=     67 Scr=      1
 Normal termination of Gaussian 16 at Tue Jan 20 22:02:29 2026.
