 Entering Gaussian System, Link 0=g16
 Input=DDL-S1min-S1-cLR-1.gjf
 Output=DDL-S1min-S1-cLR-1.log
 Initial command:
 /data/home/wyx/g16/l1.exe "/scr/tmp/wyx/13032/Gau-1839027.inp" -scrdir="/scr/tmp/wyx/13032/"
 Entering Link 1 = /data/home/wyx/g16/l1.exe PID=   1839028.
  
 Copyright (c) 1988,1990,1992,1993,1995,1998,2003,2009,2016,
            Gaussian, Inc.  All Rights Reserved.
  
 This is part of the Gaussian(R) 16 program.  It is based on
 the Gaussian(R) 09 system (copyright 2009, Gaussian, Inc.),
 the Gaussian(R) 03 system (copyright 2003, Gaussian, Inc.),
 the Gaussian(R) 98 system (copyright 1998, Gaussian, Inc.),
 the Gaussian(R) 94 system (copyright 1995, Gaussian, Inc.),
 the Gaussian 92(TM) system (copyright 1992, Gaussian, Inc.),
 the Gaussian 90(TM) system (copyright 1990, Gaussian, Inc.),
 the Gaussian 88(TM) system (copyright 1988, Gaussian, Inc.),
 the Gaussian 86(TM) system (copyright 1986, Carnegie Mellon
 University), and the Gaussian 82(TM) system (copyright 1983,
 Carnegie Mellon University). Gaussian is a federally registered
 trademark of Gaussian, Inc.
  
 This software contains proprietary and confidential information,
 including trade secrets, belonging to Gaussian, Inc.
  
 This software is provided under written license and may be
 used, copied, transmitted, or stored only in accord with that
 written license.
  
 The following legend is applicable only to US Government
 contracts under FAR:
  
                    RESTRICTED RIGHTS LEGEND
  
 Use, reproduction and disclosure by the US Government is
 subject to restrictions as set forth in subparagraphs (a)
 and (c) of the Commercial Computer Software - Restricted
 Rights clause in FAR 52.227-19.
  
 Gaussian, Inc.
 340 Quinnipiac St., Bldg. 40, Wallingford CT 06492
  
  
 ---------------------------------------------------------------
 Warning -- This program may not be used in any manner that
 competes with the business of Gaussian, Inc. or will provide
 assistance to any competitor of Gaussian, Inc.  The licensee
 of this program is prohibited from giving any competitor of
 Gaussian, Inc. access to this program.  By using this program,
 the user acknowledges that Gaussian, Inc. is engaged in the
 business of creating and licensing software in the field of
 computational chemistry and represents and warrants to the
 licensee that it is not a competitor of Gaussian, Inc. and that
 it will not use this program in any manner prohibited above.
 ---------------------------------------------------------------
  

 Cite this work as:
 Gaussian 16, Revision A.03,
 M. J. Frisch, G. W. Trucks, H. B. Schlegel, G. E. Scuseria, 
 M. A. Robb, J. R. Cheeseman, G. Scalmani, V. Barone, 
 G. A. Petersson, H. Nakatsuji, X. Li, M. Caricato, A. V. Marenich, 
 J. Bloino, B. G. Janesko, R. Gomperts, B. Mennucci, H. P. Hratchian, 
 J. V. Ortiz, A. F. Izmaylov, J. L. Sonnenberg, D. Williams-Young, 
 F. Ding, F. Lipparini, F. Egidi, J. Goings, B. Peng, A. Petrone, 
 T. Henderson, D. Ranasinghe, V. G. Zakrzewski, J. Gao, N. Rega, 
 G. Zheng, W. Liang, M. Hada, M. Ehara, K. Toyota, R. Fukuda, 
 J. Hasegawa, M. Ishida, T. Nakajima, Y. Honda, O. Kitao, H. Nakai, 
 T. Vreven, K. Throssell, J. A. Montgomery, Jr., J. E. Peralta, 
 F. Ogliaro, M. J. Bearpark, J. J. Heyd, E. N. Brothers, K. N. Kudin, 
 V. N. Staroverov, T. A. Keith, R. Kobayashi, J. Normand, 
 K. Raghavachari, A. P. Rendell, J. C. Burant, S. S. Iyengar, 
 J. Tomasi, M. Cossi, J. M. Millam, M. Klene, C. Adamo, R. Cammi, 
 J. W. Ochterski, R. L. Martin, K. Morokuma, O. Farkas, 
 J. B. Foresman, and D. J. Fox, Gaussian, Inc., Wallingford CT, 2016.
 
 ******************************************
 Gaussian 16:  ES64L-G16RevA.03 25-Dec-2016
                20-Jan-2026 
 ******************************************
 %nprocshared=32
 Will use up to   32 processors via shared memory.
 %mem=16GB
 %oldchk=DDL-S1min-S1-cLR.chk
 %chk=DDL-S1min-S1-cLR-1.chk
 Copying data from "DDL-S1min-S1-cLR.chk" to current chk file "DDL-S1min-S1-cLR-1.chk"
 IOpt=  2 FromEx=T IUOpen= 4 IOptOp= 5 NList=   0 IFRang= 0 IUIn= 4 IUOut= 2.
 ----------------------------------------------------------------------
 #p CAM-B3LYP/TZVP em=gd3bj SCRF=(Solvent=TetraHydroFuran,NonEquilibriu
 m=Read) Geom=Check Guess=Read NoSymm
 ----------------------------------------------------------------------
 1/29=2,38=1,172=1/1;
 2/12=2,15=1,40=1/2;
 3/5=19,7=101,11=2,14=-4,25=1,30=1,70=6002201,72=20,74=-40,116=-2,124=41/1,2,3;
 4/5=1/1;
 5/5=2,38=6,53=20/2;
 6/7=2,8=2,9=2,10=2,28=1/1;
 99/5=1,9=1/99;
 Leave Link    1 at Tue Jan 20 22:02:29 2026, MaxMem=  2147483648 cpu:               6.5 elap:               0.3
 (Enter /data/home/wyx/g16/l101.exe)
 -------------------
 Title Card Required
 -------------------
 Structure from the checkpoint file:  "DDL-S1min-S1-cLR-1.chk"
 Charge =  0 Multiplicity = 1
 Redundant internal coordinates found in file.  (old form).
 O,0,1.3945220005,9.8211866469,0.3945305353
 O,0,-4.8762889793,9.7402731996,0.1870816674
 N,0,-2.119093892,12.9160131106,0.2510925989
 H,0,-2.4316304625,13.8776595666,0.2028378196
 C,0,-2.6969141816,10.6323332674,0.1926468445
 C,0,-0.7728057445,12.7417115393,0.3864908624
 C,0,-3.0923761221,11.9845013972,0.1641778763
 C,0,-3.6542766842,9.5449293575,0.1822849717
 C,0,-1.2583982383,10.3215110855,0.2415180553
 H,0,-1.0564395505,9.5275944052,0.9726277758
 H,0,-0.9623615762,9.8094358106,-0.6959598527
 C,0,-0.2994973216,11.4231421917,0.4441503941
 C,0,1.0730758362,10.9925573426,0.6423449869
 C,0,-4.4829110014,12.5062596591,0.0242602602
 H,0,-4.47598769,13.5956118672,-0.0332442812
 H,0,-4.961492716,12.1128292531,-0.8712659815
 H,0,-5.1063355443,12.2047306163,0.8641589114
 C,0,-3.1463452612,8.1202064333,0.2047959073
 H,0,-3.9394077773,7.471059059,-0.1588442099
 H,0,-2.2524203394,7.9653081326,-0.3963472504
 H,0,-2.9103362683,7.8240474218,1.2303683466
 C,0,2.1297812824,11.9200948896,1.1934823237
 H,0,2.6331670771,12.4549388249,0.385004468
 H,0,1.7360388295,12.6535136314,1.892425968
 H,0,2.8746018547,11.3078198525,1.6977974643
 C,0,0.025601032,14.0039920756,0.4113642378
 H,0,0.3229548738,14.2927380054,1.4218681424
 H,0,0.9302988668,13.9110325722,-0.1851100019
 H,0,-0.5538933323,14.8288032352,-0.0045388403
 Recover connectivity data from disk.
 ITRead=  0  0  0  0  0  0  0  0  0  0  0  0  0  0  0  0  0  0  0  0
 ITRead=  0  0  0  0  0  0  0  0  0
 MicOpt= -1 -1 -1 -1 -1 -1 -1 -1 -1 -1 -1 -1 -1 -1 -1 -1 -1 -1 -1 -1
 MicOpt= -1 -1 -1 -1 -1 -1 -1 -1 -1
                           ----------------------------
                           !    Current Parameters    !
                           ! (Angstroms and Degrees)  !
 --------------------------                            --------------------------
 ! Name  Definition              Value                                          !
 --------------------------------------------------------------------------------
 ! R1    R(1,13)                 1.2397                                         !
 ! R2    R(2,8)                  1.2375                                         !
 ! R3    R(3,4)                  1.0123                                         !
 ! R4    R(3,6)                  1.3643                                         !
 ! R5    R(3,7)                  1.35                                           !
 ! R6    R(5,7)                  1.4091                                         !
 ! R7    R(5,8)                  1.4488                                         !
 ! R8    R(5,9)                  1.4725                                         !
 ! R9    R(6,12)                 1.4021                                         !
 ! R10   R(6,26)                 1.4938                                         !
 ! R11   R(7,14)                 1.4918                                         !
 ! R12   R(8,18)                 1.5127                                         !
 ! R13   R(9,10)                 1.098                                          !
 ! R14   R(9,11)                 1.1085                                         !
 ! R15   R(9,12)                 1.4745                                         !
 ! R16   R(12,13)                1.4521                                         !
 ! R17   R(13,22)                1.5102                                         !
 ! R18   R(14,15)                1.0909                                         !
 ! R19   R(14,16)                1.0889                                         !
 ! R20   R(14,17)                1.0886                                         !
 ! R21   R(18,19)                1.0875                                         !
 ! R22   R(18,20)                1.0883                                         !
 ! R23   R(18,21)                1.0933                                         !
 ! R24   R(22,23)                1.0923                                         !
 ! R25   R(22,24)                1.0869                                         !
 ! R26   R(22,25)                1.0881                                         !
 ! R27   R(26,27)                1.0922                                         !
 ! R28   R(26,28)                1.0876                                         !
 ! R29   R(26,29)                1.0905                                         !
 ! A1    A(4,3,6)              115.5163                                         !
 ! A2    A(4,3,7)              115.456                                          !
 ! A3    A(6,3,7)              129.0263                                         !
 ! A4    A(7,5,8)              122.3185                                         !
 ! A5    A(7,5,9)              118.5151                                         !
 ! A6    A(8,5,9)              119.1656                                         !
 ! A7    A(3,6,12)             117.216                                          !
 ! A8    A(3,6,26)             114.9061                                         !
 ! A9    A(12,6,26)            127.8466                                         !
 ! A10   A(3,7,5)              117.2897                                         !
 ! A11   A(3,7,14)             115.8948                                         !
 ! A12   A(5,7,14)             126.8071                                         !
 ! A13   A(2,8,5)              122.2758                                         !
 ! A14   A(2,8,18)             118.6964                                         !
 ! A15   A(5,8,18)             119.0059                                         !
 ! A16   A(5,9,10)             110.7571                                         !
 ! A17   A(5,9,11)             109.2895                                         !
 ! A18   A(5,9,12)             118.8267                                         !
 ! A19   A(10,9,11)            100.3691                                         !
 ! A20   A(10,9,12)            109.2136                                         !
 ! A21   A(11,9,12)            106.7196                                         !
 ! A22   A(6,12,9)             118.5171                                         !
 ! A23   A(6,12,13)            127.1236                                         !
 ! A24   A(9,12,13)            114.3254                                         !
 ! A25   A(1,13,12)            119.8669                                         !
 ! A26   A(1,13,22)            118.1546                                         !
 ! A27   A(12,13,22)           121.943                                          !
 ! A28   A(7,14,15)            110.3828                                         !
 ! A29   A(7,14,16)            111.1268                                         !
 ! A30   A(7,14,17)            111.3819                                         !
 ! A31   A(15,14,16)           108.6765                                         !
 ! A32   A(15,14,17)           108.7178                                         !
 ! A33   A(16,14,17)           106.4238                                         !
 ! A34   A(8,18,19)            108.2017                                         !
 ! A35   A(8,18,20)            113.6795                                         !
 ! A36   A(8,18,21)            109.9733                                         !
 ! A37   A(19,18,20)           109.229                                          !
 ! A38   A(19,18,21)           108.0241                                         !
 ! A39   A(20,18,21)           107.5949                                         !
 ! A40   A(13,22,23)           110.676                                          !
 ! A41   A(13,22,24)           113.3048                                         !
 ! A42   A(13,22,25)           107.6082                                         !
 ! A43   A(23,22,24)           108.21                                           !
 ! A44   A(23,22,25)           107.6452                                         !
 ! A45   A(24,22,25)           109.2451                                         !
 ! A46   A(6,26,27)            112.6012                                         !
 ! A47   A(6,26,28)            111.2991                                         !
 ! A48   A(6,26,29)            110.4123                                         !
 ! A49   A(27,26,28)           107.6699                                         !
 ! A50   A(27,26,29)           107.3126                                         !
 ! A51   A(28,26,29)           107.3091                                         !
 ! D1    D(4,3,6,12)          -179.4101                                         !
 ! D2    D(4,3,6,26)            -1.2829                                         !
 ! D3    D(7,3,6,12)             0.1364                                         !
 ! D4    D(7,3,6,26)           178.2636                                         !
 ! D5    D(4,3,7,5)            178.4176                                         !
 ! D6    D(4,3,7,14)            -0.6009                                         !
 ! D7    D(6,3,7,5)             -1.1291                                         !
 ! D8    D(6,3,7,14)           179.8524                                         !
 ! D9    D(8,5,7,3)            176.4632                                         !
 ! D10   D(8,5,7,14)            -4.6395                                         !
 ! D11   D(9,5,7,3)             -3.2187                                         !
 ! D12   D(9,5,7,14)           175.6786                                         !
 ! D13   D(7,5,8,2)             -2.1508                                         !
 ! D14   D(7,5,8,18)           179.5729                                         !
 ! D15   D(9,5,8,2)            177.5291                                         !
 ! D16   D(9,5,8,18)            -0.7472                                         !
 ! D17   D(7,5,9,10)           135.8671                                         !
 ! D18   D(7,5,9,11)          -114.4643                                         !
 ! D19   D(7,5,9,12)             8.2555                                         !
 ! D20   D(8,5,9,10)           -43.8251                                         !
 ! D21   D(8,5,9,11)            65.8436                                         !
 ! D22   D(8,5,9,12)          -171.4366                                         !
 ! D23   D(3,6,12,9)             5.1113                                         !
 ! D24   D(3,6,12,13)         -177.1364                                         !
 ! D25   D(26,6,12,9)         -172.7375                                         !
 ! D26   D(26,6,12,13)           5.0148                                         !
 ! D27   D(3,6,26,27)          101.355                                          !
 ! D28   D(3,6,26,28)         -137.6354                                         !
 ! D29   D(3,6,26,29)          -18.5692                                         !
 ! D30   D(12,6,26,27)         -80.7542                                         !
 ! D31   D(12,6,26,28)          40.2554                                         !
 ! D32   D(12,6,26,29)         159.3216                                         !
 ! D33   D(3,7,14,15)            2.7292                                         !
 ! D34   D(3,7,14,16)          123.3798                                         !
 ! D35   D(3,7,14,17)         -118.143                                          !
 ! D36   D(5,7,14,15)         -176.1815                                         !
 ! D37   D(5,7,14,16)          -55.5308                                         !
 ! D38   D(5,7,14,17)           62.9464                                         !
 ! D39   D(2,8,18,19)           21.6324                                         !
 ! D40   D(2,8,18,20)          143.1503                                         !
 ! D41   D(2,8,18,21)          -96.1469                                         !
 ! D42   D(5,8,18,19)         -160.0291                                         !
 ! D43   D(5,8,18,20)          -38.5111                                         !
 ! D44   D(5,8,18,21)           82.1917                                         !
 ! D45   D(5,9,12,6)            -9.2283                                         !
 ! D46   D(5,9,12,13)          172.7384                                         !
 ! D47   D(10,9,12,6)         -137.5591                                         !
 ! D48   D(10,9,12,13)          44.4076                                         !
 ! D49   D(11,9,12,6)          114.7606                                         !
 ! D50   D(11,9,12,13)         -63.2727                                         !
 ! D51   D(6,12,13,1)         -164.8253                                         !
 ! D52   D(6,12,13,22)          17.3852                                         !
 ! D53   D(9,12,13,1)           13.0073                                         !
 ! D54   D(9,12,13,22)        -164.7822                                         !
 ! D55   D(1,13,22,23)          91.9875                                         !
 ! D56   D(1,13,22,24)        -146.2599                                         !
 ! D57   D(1,13,22,25)         -25.3796                                         !
 ! D58   D(12,13,22,23)        -90.1866                                         !
 ! D59   D(12,13,22,24)         31.566                                          !
 ! D60   D(12,13,22,25)        152.4463                                         !
 --------------------------------------------------------------------------------
 NAtoms=     29 NQM=       29 NQMF=       0 NMMI=      0 NMMIF=      0
                NMic=       0 NMicF=      0.
                    Isotopes and Nuclear Properties:
 (Nuclear quadrupole moments (NQMom) in fm**2, nuclear magnetic moments (NMagM)
  in nuclear magnetons)

  Atom         1           2           3           4           5           6           7           8           9          10
 IAtWgt=          16          16          14           1          12          12          12          12          12           1
 AtmWgt=  15.9949146  15.9949146  14.0030740   1.0078250  12.0000000  12.0000000  12.0000000  12.0000000  12.0000000   1.0078250
 NucSpn=           0           0           2           1           0           0           0           0           0           1
 AtZEff=   5.6000000   5.6000000   4.5500000   1.0000000   3.6000000   3.6000000   3.6000000   3.6000000   3.6000000   1.0000000
 NQMom=    0.0000000   0.0000000   2.0440000   0.0000000   0.0000000   0.0000000   0.0000000   0.0000000   0.0000000   0.0000000
 NMagM=    0.0000000   0.0000000   0.4037610   2.7928460   0.0000000   0.0000000   0.0000000   0.0000000   0.0000000   2.7928460
 AtZNuc=   8.0000000   8.0000000   7.0000000   1.0000000   6.0000000   6.0000000   6.0000000   6.0000000   6.0000000   1.0000000

  Atom        11          12          13          14          15          16          17          18          19          20
 IAtWgt=           1          12          12          12           1           1           1          12           1           1
 AtmWgt=   1.0078250  12.0000000  12.0000000  12.0000000   1.0078250   1.0078250   1.0078250  12.0000000   1.0078250   1.0078250
 NucSpn=           1           0           0           0           1           1           1           0           1           1
 AtZEff=   1.0000000   3.6000000   3.6000000   3.6000000   1.0000000   1.0000000   1.0000000   3.6000000   1.0000000   1.0000000
 NQMom=    0.0000000   0.0000000   0.0000000   0.0000000   0.0000000   0.0000000   0.0000000   0.0000000   0.0000000   0.0000000
 NMagM=    2.7928460   0.0000000   0.0000000   0.0000000   2.7928460   2.7928460   2.7928460   0.0000000   2.7928460   2.7928460
 AtZNuc=   1.0000000   6.0000000   6.0000000   6.0000000   1.0000000   1.0000000   1.0000000   6.0000000   1.0000000   1.0000000

  Atom        21          22          23          24          25          26          27          28          29
 IAtWgt=           1          12           1           1           1          12           1           1           1
 AtmWgt=   1.0078250  12.0000000   1.0078250   1.0078250   1.0078250  12.0000000   1.0078250   1.0078250   1.0078250
 NucSpn=           1           0           1           1           1           0           1           1           1
 AtZEff=   1.0000000   3.6000000   1.0000000   1.0000000   1.0000000   3.6000000   1.0000000   1.0000000   1.0000000
 NQMom=    0.0000000   0.0000000   0.0000000   0.0000000   0.0000000   0.0000000   0.0000000   0.0000000   0.0000000
 NMagM=    2.7928460   0.0000000   2.7928460   2.7928460   2.7928460   0.0000000   2.7928460   2.7928460   2.7928460
 AtZNuc=   1.0000000   6.0000000   1.0000000   1.0000000   1.0000000   6.0000000   1.0000000   1.0000000   1.0000000
 Leave Link  101 at Tue Jan 20 22:02:32 2026, MaxMem=  2147483648 cpu:               8.2 elap:               0.3
 (Enter /data/home/wyx/g16/l202.exe)
                          Input orientation:                          
 ---------------------------------------------------------------------
 Center     Atomic      Atomic             Coordinates (Angstroms)
 Number     Number       Type             X           Y           Z
 ---------------------------------------------------------------------
      1          8           0        1.394522    9.821187    0.394531
      2          8           0       -4.876289    9.740273    0.187082
      3          7           0       -2.119094   12.916013    0.251093
      4          1           0       -2.431630   13.877660    0.202838
      5          6           0       -2.696914   10.632333    0.192647
      6          6           0       -0.772806   12.741712    0.386491
      7          6           0       -3.092376   11.984501    0.164178
      8          6           0       -3.654277    9.544929    0.182285
      9          6           0       -1.258398   10.321511    0.241518
     10          1           0       -1.056440    9.527594    0.972628
     11          1           0       -0.962362    9.809436   -0.695960
     12          6           0       -0.299497   11.423142    0.444150
     13          6           0        1.073076   10.992557    0.642345
     14          6           0       -4.482911   12.506260    0.024260
     15          1           0       -4.475988   13.595612   -0.033244
     16          1           0       -4.961493   12.112829   -0.871266
     17          1           0       -5.106336   12.204731    0.864159
     18          6           0       -3.146345    8.120206    0.204796
     19          1           0       -3.939408    7.471059   -0.158844
     20          1           0       -2.252420    7.965308   -0.396347
     21          1           0       -2.910336    7.824047    1.230368
     22          6           0        2.129781   11.920095    1.193482
     23          1           0        2.633167   12.454939    0.385004
     24          1           0        1.736039   12.653514    1.892426
     25          1           0        2.874602   11.307820    1.697797
     26          6           0        0.025601   14.003992    0.411364
     27          1           0        0.322955   14.292738    1.421868
     28          1           0        0.930299   13.911033   -0.185110
     29          1           0       -0.553893   14.828803   -0.004539
 ---------------------------------------------------------------------
                    Distance matrix (angstroms):
                    1          2          3          4          5
     1  O    0.000000
     2  O    6.274763   0.000000
     3  N    4.684445   4.206132   0.000000
     4  H    5.579531   4.805681   1.012310   0.000000
     5  C    4.175951   2.354884   2.356371   3.256167   0.000000
     6  C    3.636872   5.087924   1.364260   2.018863   2.861686
     7  C    4.986507   2.866955   1.350017   2.005524   1.409099
     8  C    5.060804   1.237536   3.704825   4.501981   1.448826
     9  C    2.704020   3.664687   2.733556   3.744885   1.472524
    10  H    2.535272   3.905581   3.623704   4.626748   2.126023
    11  H    2.596961   4.012901   3.447573   4.417809   2.115527
    12  C    2.332043   4.883150   2.361539   3.260196   2.536975
    13  C    1.239697   6.096755   3.747360   4.560696   3.813766
    14  C    6.472321   2.798560   2.409768   2.473940   2.594174
    15  H    6.992293   3.882322   2.469342   2.077181   3.463690
    16  H    6.874066   2.599304   3.159751   3.266271   2.907249
    17  H    6.939955   2.566107   3.131355   3.223365   2.954433
    18  C    4.852711   2.370155   4.904809   5.801645   2.552042
    19  H    5.854924   2.479263   5.755790   6.591566   3.414819
    20  H    4.167729   3.221114   4.994641   5.945338   2.767221
    21  H    4.818609   2.936893   5.245299   6.158831   3.001480
    22  C    2.363122   7.406044   4.464627   5.061612   5.094800
    23  H    2.910495   7.987522   4.776453   5.263981   5.636369
    24  H    3.222173   7.424153   4.198206   4.660763   5.159989
    25  H    2.469660   8.050824   5.442080   6.082358   5.810641
    26  C    4.401146   6.500625   2.410208   2.469297   4.339125
    27  H    4.711523   7.020098   3.038040   3.040734   4.901954
    28  H    4.156721   7.158926   3.237149   3.384403   4.904003
    29  H    5.388117   6.679293   2.484747   2.115083   4.716119
                    6          7          8          9         10
     6  C    0.000000
     7  C    2.450142   0.000000
     8  C    4.308595   2.503512   0.000000
     9  C    2.472688   2.476892   2.519290   0.000000
    10  H    3.279414   3.291659   2.715456   1.098004   0.000000
    11  H    3.131433   3.163496   2.843885   1.108478   1.694836
    12  C    1.402131   2.862461   3.853674   1.474497   2.108400
    13  C    2.555833   4.308548   4.965395   2.459011   2.605770
    14  C    3.735175   1.491776   3.079137   3.901001   4.638163
    15  H    3.823464   2.132846   4.138803   4.598708   5.408683
    16  H    4.418432   2.140609   3.068044   4.261457   5.033172
    17  H    4.392721   2.143480   3.106118   4.329067   4.855974
    18  C    5.198559   3.864885   1.512725   2.900247   2.634011
    19  H    6.172887   4.603582   2.120992   3.933596   3.717670
    20  H    5.061237   4.144108   2.189799   2.635649   2.396915
    21  H    5.428129   4.298753   2.147874   3.153419   2.530896
    22  C    3.122707   5.323020   6.333976   3.865419   3.990594
    23  H    3.418025   5.749080   6.931176   4.440313   4.746351
    24  H    2.927443   5.171848   6.453168   4.138887   4.291309
    25  H    4.132693   6.197960   6.930427   4.491686   4.375861
    26  C    1.493795   3.723067   5.785950   3.903610   4.639393
    27  H    2.162956   4.309783   6.316377   4.434473   4.981078
    28  H    2.143503   4.473862   6.341622   4.225763   4.949951
    29  H    2.134661   3.816073   6.129160   4.568649   5.413892
                   11         12         13         14         15
    11  H    0.000000
    12  C    2.084056   0.000000
    13  C    2.708107   1.452116   0.000000
    14  C    4.492866   4.341705   5.791573   0.000000
    15  H    5.207676   4.731871   6.166394   1.090891   0.000000
    16  H    4.618377   4.892871   6.321554   1.088942   1.771056
    17  H    5.034275   4.888045   6.301086   1.088581   1.771220
    18  C    2.904245   4.367061   5.123023   4.588732   5.639564
    19  H    3.823520   5.406617   6.178013   5.067758   6.149296
    20  H    2.270424   4.059182   4.615414   5.076637   6.064356
    21  H    3.383358   4.515319   5.123748   5.084368   6.112196
    22  C    4.193593   2.590339   1.510200   6.740799   6.924478
    23  H    4.592929   3.109441   2.153757   7.125401   7.212222
    24  H    4.697860   2.784730   2.181971   6.495157   6.571532
    25  H    4.764191   3.414650   2.111603   7.640025   7.890606
    26  C    4.449330   2.601452   3.196763   4.766522   4.541889
    27  H    5.122229   3.094828   3.472971   5.314241   5.062923
    28  H    4.546012   2.845693   3.036868   5.596433   5.417609
    29  H    5.083204   3.444498   4.216903   4.564232   4.111497
                   16         17         18         19         20
    16  H    0.000000
    17  H    1.743882   0.000000
    18  C    4.515939   4.578172   0.000000
    19  H    4.806062   4.981556   1.087462   0.000000
    20  H    4.976600   5.263688   1.088333   1.773870   0.000000
    21  H    5.197861   4.913950   1.093256   1.764511   1.760401
    22  C    7.388268   7.249197   6.576790   7.645768   6.113231
    23  H    7.705460   7.758356   7.226697   8.266412   6.681037
    24  H    7.265484   6.933745   6.872892   7.954636   6.567005
    25  H    8.285681   8.074327   6.974363   8.037324   6.468708
    26  C    5.485685   5.457026   6.687514   7.663266   6.504420
    27  H    6.159209   5.843630   7.184529   8.197664   7.069288
    28  H    6.198190   6.360298   7.092582   8.073908   6.747293
    29  H    5.249254   5.325892   7.195130   8.100736   7.081389
                   21         22         23         24         25
    21  H    0.000000
    22  C    6.494748   0.000000
    23  H    7.272567   1.092287   0.000000
    24  H    6.734305   1.086949   1.765387   0.000000
    25  H    6.769097   1.088105   1.759999   1.773442   0.000000
    26  C    6.890734   3.062990   3.033094   2.634945   4.128082
    27  H    7.234280   2.991023   3.128845   2.214788   3.936594
    28  H    7.335220   2.702426   2.311926   2.558657   3.755312
    29  H    7.492958   4.134967   3.993035   3.684311   5.200947
                   26         27         28         29
    26  C    0.000000
    27  H    1.092205   0.000000
    28  H    1.087613   1.759814   0.000000
    29  H    1.090460   1.758086   1.754348   0.000000
 Symmetry turned off by external request.
 Stoichiometry    C11H15NO2
 Framework group  C1[X(C11H15NO2)]
 Deg. of freedom    81
 Full point group                 C1      NOp   1
 Rotational constants (GHZ):           1.0702311           0.4891896           0.3417435
 Leave Link  202 at Tue Jan 20 22:02:32 2026, MaxMem=  2147483648 cpu:               0.1 elap:               0.0
 (Enter /data/home/wyx/g16/l301.exe)
 Standard basis: TZVP (5D, 7F)
 Ernie: Thresh=  0.10000D-02 Tol=  0.10000D-05 Strict=F.
   356 basis functions,   610 primitive gaussians,   370 cartesian basis functions
    52 alpha electrons       52 beta electrons
       nuclear repulsion energy       898.0749139445 Hartrees.
 IExCor=20419 DFT=T Ex+Corr=CAM-B3LYP ExCW=0 ScaHFX=  1.000000
 ScaDFX=  1.000000  1.000000  1.000000  0.810000 ScalE2=  1.000000  1.000000
 IRadAn=      5 IRanWt=     -1 IRanGd=            0 ICorTp=0 IEmpDi=141
 HFx  wShort=  0.000000 wLong=  0.330000 cFull=  0.190000 cShort=  0.000000 cLong=  0.460000
 DFx  wShort=  0.000000 wLong=  0.330000 cFull=  0.190000 cShort=  0.000000 cLong=  0.460000
 NAtoms=   29 NActive=   29 NUniq=   29 SFac= 1.00D+00 NAtFMM=   60 NAOKFM=F Big=F
 Integral buffers will be    131072 words long.
 Raffenetti 2 integral format.
 Two-electron integral symmetry is turned off.
 R6Disp:  Grimme-D3(BJ) Dispersion energy=       -0.0260901925 Hartrees.
 Nuclear repulsion after empirical dispersion term =      898.0488237520 Hartrees.
 ------------------------------------------------------------------------------
 Polarizable Continuum Model (PCM)
 =================================
 Model                : PCM.
 Atomic radii         : UFF (Universal Force Field).
 Polarization charges : Total charges.
 Charge compensation  : None.
 Solution method      : On-the-fly selection.
 Cavity type          : Scaled VdW (van der Waals Surface) (Alpha=1.100).
 Cavity algorithm     : GePol (No added spheres)
                        Default sphere list used, NSphG=   29.
                        Lebedev-Laikov grids with approx.  5.0 points / Ang**2.
                        Smoothing algorithm: York/Karplus (Gamma=1.0000).
                        Polarization charges: spherical gaussians, with
                                              point-specific exponents (IZeta= 3).
                        Self-potential: point-specific (ISelfS= 7).
                        Self-field    : sphere-specific E.n sum rule (ISelfD= 2).
 Solvent              : TetraHydroFuran, Eps=   7.425700 Eps(inf)=   1.974025
 ------------------------------------------------------------------------------
 GePol: Number of generator spheres                  =      29
 GePol: Total number of spheres                      =      29
 GePol: Number of exposed spheres                    =      29 (100.00%)
 GePol: Number of points                             =    2085
 GePol: Average weight of points                     =       0.13
 GePol: Minimum weight of points                     =   0.47D-08
 GePol: Maximum weight of points                     =    0.20577
 GePol: Number of points with low weight             =     128
 GePol: Fraction of low-weight points (<1% of avg)   =       6.14%
 GePol: Cavity surface area                          =    270.796 Ang**2
 GePol: Cavity volume                                =    290.059 Ang**3
 Leave Link  301 at Tue Jan 20 22:02:33 2026, MaxMem=  2147483648 cpu:               1.3 elap:               0.1
 (Enter /data/home/wyx/g16/l302.exe)
 NPDir=0 NMtPBC=     1 NCelOv=     1 NCel=       1 NClECP=     1 NCelD=      1
         NCelK=      1 NCelE2=     1 NClLst=     1 CellRange=     0.0.
 One-electron integrals computed using PRISM.
 NBasis=   356 RedAO= T EigKep=  3.81D-05  NBF=   356
 NBsUse=   356 1.00D-06 EigRej= -1.00D+00 NBFU=   356
 Precomputing XC quadrature grid using
 IXCGrd= 4 IRadAn=           5 IRanWt=          -1 IRanGd=           0 AccXCQ= 0.00D+00.
 Generated NRdTot=       0 NPtTot=           0 NUsed=           0 NTot=          32
 NSgBfM=   365   365   365   365   365 MxSgAt=    29 MxSgA2=    29.
 Leave Link  302 at Tue Jan 20 22:02:33 2026, MaxMem=  2147483648 cpu:               6.3 elap:               0.2
 (Enter /data/home/wyx/g16/l303.exe)
 DipDrv:  MaxL=1.
 Leave Link  303 at Tue Jan 20 22:02:33 2026, MaxMem=  2147483648 cpu:               1.2 elap:               0.1
 (Enter /data/home/wyx/g16/l401.exe)
 Initial guess from the checkpoint file:  "DDL-S1min-S1-cLR-1.chk"
 B after Tr=     0.000000    0.000000    0.000000
         Rot=    1.000000    0.000000    0.000000    0.000000 Ang=   0.00 deg.
 Guess basis will be translated and rotated to current coordinates.
 JPrj=2 DoOrth=T DoCkMO=T.
 Leave Link  401 at Tue Jan 20 22:02:34 2026, MaxMem=  2147483648 cpu:               6.0 elap:               0.2
 (Enter /data/home/wyx/g16/l502.exe)
 Two-electron integral symmetry not used.
 Closed shell SCF:
 Using DIIS extrapolation, IDIIS=  1040.
 NGot=  2147483648 LenX=  2147195087 LenY=  2147057746
 Requested convergence on RMS density matrix=1.00D-08 within 128 cycles.
 Requested convergence on MAX density matrix=1.00D-06.
 Requested convergence on             energy=1.00D-06.
 No special actions if energy rises.
 Fock matrices will be formed incrementally for  20 cycles.

 Cycle   1  Pass 1  IDiag  1:
 FoFJK:  IHMeth= 1 ICntrl=       0 DoSepK=T KAlg= 0 I1Cent=           0 FoldK=F
 IRaf=         1 NMat=       1 IRICut=       1 DoRegI=T DoRafI=F ISym2E= 0 IDoP0=0 IntGTp=1.
 FoFCou: FMM=F IPFlag=           0 FMFlag=      100000 FMFlg1=           0
         NFxFlg=           0 DoJE=T BraDBF=F KetDBF=F FulRan=T
         wScrn=  0.000000 ICntrl=       500 IOpCl=  0 I1Cent=           0 NGrid=           0
         NMat0=    1 NMatS0=      1 NMatT0=    0 NMatD0=    1 NMtDS0=    0 NMtDT0=    0
 Symmetry not used in FoFCou.
 Inv3:  Mode=1 IEnd=    13041675.
 Iteration    1 A*A^-1 deviation from unit magnitude is 3.55D-15 for    752.
 Iteration    1 A*A^-1 deviation from orthogonality  is 2.41D-15 for   1771    204.
 Iteration    1 A^-1*A deviation from unit magnitude is 3.77D-15 for    752.
 Iteration    1 A^-1*A deviation from orthogonality  is 2.89D-15 for   1978    115.
 NEqPCM:  Using non-equilibrium solvation (IEInf=1, Eps=   7.4257, EpsInf=   1.9740)
 Inv3:  Mode=1 IEnd=    13041675.
 Iteration    1 A*A^-1 deviation from unit magnitude is 4.22D-15 for   1143.
 Iteration    1 A*A^-1 deviation from orthogonality  is 1.55D-15 for   1385    915.
 Iteration    1 A^-1*A deviation from unit magnitude is 3.77D-15 for   1143.
 Iteration    1 A^-1*A deviation from orthogonality  is 1.70D-15 for    562    379.
 E= -633.316649348029    
 DIIS: error= 1.66D-04 at cycle   1 NSaved=   1.
 NSaved= 1 IEnMin= 1 EnMin= -633.316649348029     IErMin= 1 ErrMin= 1.66D-04
 ErrMax= 1.66D-04  0.00D+00 EMaxC= 1.00D-01 BMatC= 9.26D-06 BMatP= 9.26D-06
 IDIUse=3 WtCom= 9.98D-01 WtEn= 1.66D-03
 Coeff-Com:  0.100D+01
 Coeff-En:   0.100D+01
 Coeff:      0.100D+01
 Gap=     0.213 Goal=   None    Shift=    0.000
 RMSDP=1.43D-04 MaxDP=8.33D-03              OVMax= 2.62D-03

 Cycle   2  Pass 1  IDiag  1:
 RMSU=  1.43D-04    CP:  9.99D-01
 E= -633.316667524076     Delta-E=       -0.000018176047 Rises=F Damp=F
 DIIS: error= 9.89D-05 at cycle   2 NSaved=   2.
 NSaved= 2 IEnMin= 2 EnMin= -633.316667524076     IErMin= 2 ErrMin= 9.89D-05
 ErrMax= 9.89D-05  0.00D+00 EMaxC= 1.00D-01 BMatC= 4.68D-06 BMatP= 9.26D-06
 IDIUse=1 WtCom= 1.00D+00 WtEn= 0.00D+00
 Coeff-Com:  0.384D+00 0.616D+00
 Coeff:      0.384D+00 0.616D+00
 Gap=     0.213 Goal=   None    Shift=    0.000
 RMSDP=2.52D-05 MaxDP=2.10D-03 DE=-1.82D-05 OVMax= 6.81D-04

 Cycle   3  Pass 1  IDiag  1:
 RMSU=  1.88D-05    CP:  9.99D-01  9.00D-01
 E= -633.316671192058     Delta-E=       -0.000003667982 Rises=F Damp=F
 DIIS: error= 6.56D-05 at cycle   3 NSaved=   3.
 NSaved= 3 IEnMin= 3 EnMin= -633.316671192058     IErMin= 3 ErrMin= 6.56D-05
 ErrMax= 6.56D-05  0.00D+00 EMaxC= 1.00D-01 BMatC= 1.41D-06 BMatP= 4.68D-06
 IDIUse=1 WtCom= 1.00D+00 WtEn= 0.00D+00
 Coeff-Com:  0.726D-01 0.339D+00 0.588D+00
 Coeff:      0.726D-01 0.339D+00 0.588D+00
 Gap=     0.213 Goal=   None    Shift=    0.000
 RMSDP=9.56D-06 MaxDP=6.07D-04 DE=-3.67D-06 OVMax= 3.85D-04

 Cycle   4  Pass 1  IDiag  1:
 RMSU=  8.76D-06    CP:  9.99D-01  9.04D-01  8.90D-01
 E= -633.316672271278     Delta-E=       -0.000001079220 Rises=F Damp=F
 DIIS: error= 1.61D-05 at cycle   4 NSaved=   4.
 NSaved= 4 IEnMin= 4 EnMin= -633.316672271278     IErMin= 4 ErrMin= 1.61D-05
 ErrMax= 1.61D-05  0.00D+00 EMaxC= 1.00D-01 BMatC= 1.06D-07 BMatP= 1.41D-06
 IDIUse=1 WtCom= 1.00D+00 WtEn= 0.00D+00
 Coeff-Com: -0.114D-01 0.659D-01 0.235D+00 0.710D+00
 Coeff:     -0.114D-01 0.659D-01 0.235D+00 0.710D+00
 Gap=     0.213 Goal=   None    Shift=    0.000
 RMSDP=4.31D-06 MaxDP=3.33D-04 DE=-1.08D-06 OVMax= 1.86D-04

 Cycle   5  Pass 1  IDiag  1:
 RMSU=  2.62D-06    CP:  9.99D-01  9.05D-01  1.05D+00  1.02D+00
 E= -633.316672368821     Delta-E=       -0.000000097543 Rises=F Damp=F
 DIIS: error= 4.94D-06 at cycle   5 NSaved=   5.
 NSaved= 5 IEnMin= 5 EnMin= -633.316672368821     IErMin= 5 ErrMin= 4.94D-06
 ErrMax= 4.94D-06  0.00D+00 EMaxC= 1.00D-01 BMatC= 1.92D-08 BMatP= 1.06D-07
 IDIUse=1 WtCom= 1.00D+00 WtEn= 0.00D+00
 Coeff-Com: -0.126D-01-0.170D-01 0.220D-01 0.321D+00 0.687D+00
 Coeff:     -0.126D-01-0.170D-01 0.220D-01 0.321D+00 0.687D+00
 Gap=     0.213 Goal=   None    Shift=    0.000
 RMSDP=1.28D-06 MaxDP=9.65D-05 DE=-9.75D-08 OVMax= 7.83D-05

 Cycle   6  Pass 1  IDiag  1:
 RMSU=  9.81D-07    CP:  9.99D-01  9.04D-01  1.07D+00  1.11D+00  1.06D+00
 E= -633.316672392356     Delta-E=       -0.000000023535 Rises=F Damp=F
 DIIS: error= 3.76D-06 at cycle   6 NSaved=   6.
 NSaved= 6 IEnMin= 6 EnMin= -633.316672392356     IErMin= 6 ErrMin= 3.76D-06
 ErrMax= 3.76D-06  0.00D+00 EMaxC= 1.00D-01 BMatC= 9.87D-10 BMatP= 1.92D-08
 IDIUse=1 WtCom= 1.00D+00 WtEn= 0.00D+00
 Coeff-Com: -0.832D-03-0.101D-01-0.160D-01-0.150D-01 0.120D+00 0.922D+00
 Coeff:     -0.832D-03-0.101D-01-0.160D-01-0.150D-01 0.120D+00 0.922D+00
 Gap=     0.213 Goal=   None    Shift=    0.000
 RMSDP=7.88D-07 MaxDP=6.32D-05 DE=-2.35D-08 OVMax= 5.96D-05

 Cycle   7  Pass 1  IDiag  1:
 RMSU=  3.05D-07    CP:  9.99D-01  9.02D-01  1.08D+00  1.14D+00  1.20D+00
                    CP:  1.38D+00
 E= -633.316672395818     Delta-E=       -0.000000003462 Rises=F Damp=F
 DIIS: error= 2.16D-06 at cycle   7 NSaved=   7.
 NSaved= 7 IEnMin= 7 EnMin= -633.316672395818     IErMin= 7 ErrMin= 2.16D-06
 ErrMax= 2.16D-06  0.00D+00 EMaxC= 1.00D-01 BMatC= 3.56D-10 BMatP= 9.87D-10
 IDIUse=1 WtCom= 1.00D+00 WtEn= 0.00D+00
 Coeff-Com:  0.125D-02-0.239D-02-0.710D-02-0.432D-01-0.493D-01 0.378D+00
 Coeff-Com:  0.723D+00
 Coeff:      0.125D-02-0.239D-02-0.710D-02-0.432D-01-0.493D-01 0.378D+00
 Coeff:      0.723D+00
 Gap=     0.213 Goal=   None    Shift=    0.000
 RMSDP=2.31D-07 MaxDP=1.00D-05 DE=-3.46D-09 OVMax= 2.64D-05

 Cycle   8  Pass 1  IDiag  1:
 RMSU=  1.27D-07    CP:  9.99D-01  9.01D-01  1.08D+00  1.15D+00  1.23D+00
                    CP:  1.50D+00  1.16D+00
 E= -633.316672396613     Delta-E=       -0.000000000795 Rises=F Damp=F
 DIIS: error= 8.78D-07 at cycle   8 NSaved=   8.
 NSaved= 8 IEnMin= 8 EnMin= -633.316672396613     IErMin= 8 ErrMin= 8.78D-07
 ErrMax= 8.78D-07  0.00D+00 EMaxC= 1.00D-01 BMatC= 9.15D-11 BMatP= 3.56D-10
 IDIUse=1 WtCom= 1.00D+00 WtEn= 0.00D+00
 Coeff-Com:  0.797D-03 0.785D-03 0.904D-03-0.153D-01-0.603D-01-0.647D-01
 Coeff-Com:  0.337D+00 0.800D+00
 Coeff:      0.797D-03 0.785D-03 0.904D-03-0.153D-01-0.603D-01-0.647D-01
 Coeff:      0.337D+00 0.800D+00
 Gap=     0.213 Goal=   None    Shift=    0.000
 RMSDP=1.98D-07 MaxDP=1.04D-05 DE=-7.95D-10 OVMax= 1.75D-05

 Cycle   9  Pass 1  IDiag  1:
 RMSU=  7.00D-08    CP:  9.99D-01  9.01D-01  1.08D+00  1.15D+00  1.25D+00
                    CP:  1.64D+00  1.49D+00  1.20D+00
 E= -633.316672396849     Delta-E=       -0.000000000236 Rises=F Damp=F
 DIIS: error= 4.03D-07 at cycle   9 NSaved=   9.
 NSaved= 9 IEnMin= 9 EnMin= -633.316672396849     IErMin= 9 ErrMin= 4.03D-07
 ErrMax= 4.03D-07  0.00D+00 EMaxC= 1.00D-01 BMatC= 1.63D-11 BMatP= 9.15D-11
 IDIUse=1 WtCom= 1.00D+00 WtEn= 0.00D+00
 Coeff-Com:  0.144D-03 0.797D-03 0.194D-02 0.254D-02-0.191D-01-0.106D+00
 Coeff-Com:  0.182D-01 0.367D+00 0.734D+00
 Coeff:      0.144D-03 0.797D-03 0.194D-02 0.254D-02-0.191D-01-0.106D+00
 Coeff:      0.182D-01 0.367D+00 0.734D+00
 Gap=     0.213 Goal=   None    Shift=    0.000
 RMSDP=6.22D-08 MaxDP=2.29D-06 DE=-2.36D-10 OVMax= 6.82D-06

 Cycle  10  Pass 1  IDiag  1:
 RMSU=  2.73D-08    CP:  9.99D-01  9.01D-01  1.08D+00  1.15D+00  1.25D+00
                    CP:  1.68D+00  1.58D+00  1.35D+00  1.13D+00
 E= -633.316672396903     Delta-E=       -0.000000000055 Rises=F Damp=F
 DIIS: error= 1.40D-07 at cycle  10 NSaved=  10.
 NSaved=10 IEnMin=10 EnMin= -633.316672396903     IErMin=10 ErrMin= 1.40D-07
 ErrMax= 1.40D-07  0.00D+00 EMaxC= 1.00D-01 BMatC= 2.14D-12 BMatP= 1.63D-11
 IDIUse=1 WtCom= 1.00D+00 WtEn= 0.00D+00
 Coeff-Com: -0.799D-04 0.221D-03 0.416D-03 0.370D-02 0.287D-02-0.293D-01
 Coeff-Com: -0.463D-01-0.674D-02 0.254D+00 0.821D+00
 Coeff:     -0.799D-04 0.221D-03 0.416D-03 0.370D-02 0.287D-02-0.293D-01
 Coeff:     -0.463D-01-0.674D-02 0.254D+00 0.821D+00
 Gap=     0.213 Goal=   None    Shift=    0.000
 RMSDP=3.13D-08 MaxDP=1.69D-06 DE=-5.48D-11 OVMax= 2.74D-06

 Cycle  11  Pass 1  IDiag  1:
 RMSU=  8.44D-09    CP:  9.99D-01  9.01D-01  1.08D+00  1.15D+00  1.24D+00
                    CP:  1.69D+00  1.63D+00  1.41D+00  1.35D+00  1.16D+00
 E= -633.316672396900     Delta-E=        0.000000000004 Rises=F Damp=F
 DIIS: error= 4.05D-08 at cycle  11 NSaved=  11.
 NSaved=11 IEnMin=10 EnMin= -633.316672396903     IErMin=11 ErrMin= 4.05D-08
 ErrMax= 4.05D-08  0.00D+00 EMaxC= 1.00D-01 BMatC= 6.11D-13 BMatP= 2.14D-12
 IDIUse=1 WtCom= 1.00D+00 WtEn= 0.00D+00
 Coeff-Com: -0.581D-04 0.306D-04-0.129D-03 0.147D-02 0.418D-02 0.183D-02
 Coeff-Com: -0.224D-01-0.557D-01 0.105D-01 0.411D+00 0.650D+00
 Coeff:     -0.581D-04 0.306D-04-0.129D-03 0.147D-02 0.418D-02 0.183D-02
 Coeff:     -0.224D-01-0.557D-01 0.105D-01 0.411D+00 0.650D+00
 Gap=     0.213 Goal=   None    Shift=    0.000
 RMSDP=9.32D-09 MaxDP=6.15D-07 DE= 3.52D-12 OVMax= 6.77D-07

 Error on total polarization charges =  0.00932
 SCF Done:  E(RCAM-B3LYP) =  -633.316672397     A.U. after   11 cycles
            NFock= 11  Conv=0.93D-08     -V/T= 2.0044
 KE= 6.305537461563D+02 PE=-3.271909706768D+03 EE= 1.109990464463D+03
 Leave Link  502 at Tue Jan 20 22:03:04 2026, MaxMem=  2147483648 cpu:             960.8 elap:              30.8
 (Enter /data/home/wyx/g16/l601.exe)
 Copying SCF densities to generalized density rwf, IOpCl= 0 IROHF=0.

 **********************************************************************

            Population analysis using the SCF density.

 **********************************************************************

 Alpha  occ. eigenvalues --  -19.17787 -19.16757 -14.44878 -10.33359 -10.33021
 Alpha  occ. eigenvalues --  -10.32685 -10.32321 -10.26421 -10.25458 -10.25171
 Alpha  occ. eigenvalues --  -10.24666 -10.24320 -10.24213 -10.23597  -1.11230
 Alpha  occ. eigenvalues --   -1.10499  -1.08549  -0.91382  -0.90410  -0.83910
 Alpha  occ. eigenvalues --   -0.82637  -0.81658  -0.78416  -0.73671  -0.72290
 Alpha  occ. eigenvalues --   -0.68639  -0.61443  -0.58221  -0.57034  -0.55057
 Alpha  occ. eigenvalues --   -0.54537  -0.53946  -0.52396  -0.51705  -0.50831
 Alpha  occ. eigenvalues --   -0.49688  -0.49459  -0.49173  -0.48692  -0.47878
 Alpha  occ. eigenvalues --   -0.47313  -0.45308  -0.44967  -0.44027  -0.43308
 Alpha  occ. eigenvalues --   -0.42031  -0.41925  -0.41341  -0.32482  -0.32112
 Alpha  occ. eigenvalues --   -0.31021  -0.24787
 Alpha virt. eigenvalues --   -0.03455   0.02562   0.06240   0.08142   0.08354
 Alpha virt. eigenvalues --    0.09645   0.10765   0.11442   0.12478   0.13377
 Alpha virt. eigenvalues --    0.13873   0.14781   0.15575   0.16457   0.16942
 Alpha virt. eigenvalues --    0.17474   0.17784   0.17977   0.18609   0.19300
 Alpha virt. eigenvalues --    0.19783   0.21967   0.22700   0.23421   0.23825
 Alpha virt. eigenvalues --    0.23995   0.24712   0.25624   0.26368   0.26763
 Alpha virt. eigenvalues --    0.27482   0.28090   0.28403   0.29706   0.30255
 Alpha virt. eigenvalues --    0.31536   0.31928   0.32271   0.33427   0.34009
 Alpha virt. eigenvalues --    0.34701   0.35685   0.36755   0.37505   0.38612
 Alpha virt. eigenvalues --    0.39667   0.40953   0.41423   0.41851   0.42434
 Alpha virt. eigenvalues --    0.43960   0.44926   0.45517   0.46161   0.46505
 Alpha virt. eigenvalues --    0.47276   0.47703   0.47902   0.48496   0.49093
 Alpha virt. eigenvalues --    0.49673   0.50576   0.51231   0.51296   0.51593
 Alpha virt. eigenvalues --    0.52253   0.52638   0.53241   0.53657   0.54215
 Alpha virt. eigenvalues --    0.54335   0.55156   0.55770   0.56550   0.58164
 Alpha virt. eigenvalues --    0.58382   0.59994   0.61133   0.61957   0.63209
 Alpha virt. eigenvalues --    0.64243   0.64980   0.66269   0.67016   0.67514
 Alpha virt. eigenvalues --    0.68771   0.69197   0.70386   0.70823   0.72048
 Alpha virt. eigenvalues --    0.72874   0.74986   0.75330   0.76181   0.77555
 Alpha virt. eigenvalues --    0.79103   0.80887   0.83649   0.86893   0.87592
 Alpha virt. eigenvalues --    0.92035   0.96232   1.02540   1.04374   1.21776
 Alpha virt. eigenvalues --    1.24079   1.27251   1.28068   1.28945   1.30138
 Alpha virt. eigenvalues --    1.31949   1.33274   1.34633   1.35234   1.36317
 Alpha virt. eigenvalues --    1.36974   1.37877   1.38473   1.38747   1.39379
 Alpha virt. eigenvalues --    1.39931   1.40076   1.40637   1.41354   1.42203
 Alpha virt. eigenvalues --    1.43295   1.43306   1.44250   1.45678   1.47170
 Alpha virt. eigenvalues --    1.48244   1.49380   1.49489   1.50190   1.50897
 Alpha virt. eigenvalues --    1.51400   1.52169   1.53102   1.55800   1.59135
 Alpha virt. eigenvalues --    1.59768   1.59930   1.61045   1.61727   1.62106
 Alpha virt. eigenvalues --    1.62540   1.62872   1.63243   1.64466   1.65642
 Alpha virt. eigenvalues --    1.66195   1.67001   1.67480   1.68071   1.68768
 Alpha virt. eigenvalues --    1.69010   1.69729   1.70377   1.70916   1.72524
 Alpha virt. eigenvalues --    1.74255   1.74608   1.75497   1.76462   1.78586
 Alpha virt. eigenvalues --    1.81647   1.82979   1.83646   1.85414   1.86439
 Alpha virt. eigenvalues --    1.86483   1.87944   1.88636   1.89161   1.90229
 Alpha virt. eigenvalues --    1.91293   1.94299   1.95026   1.98904   1.99746
 Alpha virt. eigenvalues --    2.01628   2.03786   2.05818   2.06877   2.09362
 Alpha virt. eigenvalues --    2.09912   2.11323   2.15799   2.17479   2.19512
 Alpha virt. eigenvalues --    2.20602   2.21122   2.22163   2.22883   2.26377
 Alpha virt. eigenvalues --    2.26755   2.27266   2.29096   2.30845   2.32079
 Alpha virt. eigenvalues --    2.33312   2.34384   2.36868   2.37592   2.38874
 Alpha virt. eigenvalues --    2.39552   2.40201   2.41337   2.42700   2.45059
 Alpha virt. eigenvalues --    2.45462   2.47032   2.48684   2.49342   2.51182
 Alpha virt. eigenvalues --    2.52368   2.53764   2.54437   2.56348   2.57204
 Alpha virt. eigenvalues --    2.58607   2.60886   2.61749   2.62247   2.63385
 Alpha virt. eigenvalues --    2.64719   2.65192   2.66598   2.67258   2.68408
 Alpha virt. eigenvalues --    2.71356   2.71807   2.74002   2.74442   2.75513
 Alpha virt. eigenvalues --    2.76357   2.77339   2.77969   2.78242   2.78859
 Alpha virt. eigenvalues --    2.80726   2.81222   2.83235   2.83646   2.85079
 Alpha virt. eigenvalues --    2.85565   2.86221   2.88621   2.89002   2.92175
 Alpha virt. eigenvalues --    2.97063   2.98471   3.01136   3.07078   3.10596
 Alpha virt. eigenvalues --    3.12019   3.13650   3.18161   3.19413   3.21370
 Alpha virt. eigenvalues --    3.22282   3.23072   3.24926   3.25986   3.26307
 Alpha virt. eigenvalues --    3.29478   3.30360   3.32054   3.34774   3.36421
 Alpha virt. eigenvalues --    3.38229   3.38577   3.39033   3.39329   3.41413
 Alpha virt. eigenvalues --    3.41848   3.43523   3.44606   3.47539   3.48122
 Alpha virt. eigenvalues --    3.49846   3.50265   3.56167   3.58317   3.59753
 Alpha virt. eigenvalues --    3.61496   3.90962   4.00805   4.32752   4.35889
 Alpha virt. eigenvalues --   21.68741  21.80870  22.07628  22.09892  22.11299
 Alpha virt. eigenvalues --   22.14428  22.14802  22.17054  22.18715  22.25010
 Alpha virt. eigenvalues --   22.26927  31.91148  43.64104  43.66964
          Condensed to atoms (all electrons):
               1          2          3          4          5          6
     1  O    7.932024   0.000000  -0.000158   0.000019   0.018711   0.007663
     2  O    0.000000   7.987301   0.000348   0.000009  -0.191528   0.001434
     3  N   -0.000158   0.000348   6.350201   0.367537  -0.119322   0.330968
     4  H    0.000019   0.000009   0.367537   0.413541   0.015865  -0.045332
     5  C    0.018711  -0.191528  -0.119322   0.015865   7.186619  -0.081072
     6  C    0.007663   0.001434   0.330968  -0.045332  -0.081072   5.541452
     7  C   -0.000005  -0.051597   0.394373  -0.035746   0.487443  -0.134233
     8  C   -0.000817   0.695325   0.004149  -0.000949  -0.380293   0.035747
     9  C   -0.000385   0.029009   0.017823   0.000354  -0.747078  -0.038565
    10  H    0.007273   0.000018  -0.001071   0.000025  -0.101351   0.028888
    11  H    0.009248   0.000095   0.003006   0.000040  -0.084845  -0.017689
    12  C   -0.232275  -0.003438  -0.087001   0.014444   0.201129  -0.028236
    13  C    0.715701  -0.000012   0.001580   0.000587   0.084295   0.105909
    14  C   -0.000007  -0.006589  -0.032413  -0.010722  -0.086419   0.010094
    15  H   -0.000000   0.004097   0.004635   0.002439   0.022399   0.006281
    16  H    0.000000   0.002430  -0.000792   0.000806  -0.004766  -0.001443
    17  H   -0.000000   0.004198  -0.001689   0.000903  -0.010628  -0.001102
    18  C    0.000314  -0.097308  -0.000490   0.000021  -0.241186  -0.000154
    19  H    0.000001   0.006839   0.000009  -0.000001   0.023871   0.000010
    20  H    0.000217   0.004372   0.000103   0.000001   0.045673  -0.001244
    21  H   -0.000010   0.000643   0.000011  -0.000001   0.001224   0.000168
    22  C   -0.105906   0.000000  -0.000265   0.000116   0.003183  -0.024922
    23  H    0.001451   0.000000   0.000030  -0.000010  -0.000012   0.006970
    24  H    0.005197  -0.000000   0.000255  -0.000057  -0.000725  -0.022352
    25  H    0.006461   0.000000   0.000018  -0.000002  -0.000111  -0.000890
    26  C    0.000635   0.000011  -0.025181  -0.007037   0.000806   0.200511
    27  H   -0.000054  -0.000000  -0.002260   0.000518   0.000357  -0.032116
    28  H   -0.000202  -0.000000   0.000527   0.000687   0.000146  -0.050688
    29  H    0.000021   0.000000   0.002234   0.002351  -0.000291  -0.046844
               7          8          9         10         11         12
     1  O   -0.000005  -0.000817  -0.000385   0.007273   0.009248  -0.232275
     2  O   -0.051597   0.695325   0.029009   0.000018   0.000095  -0.003438
     3  N    0.394373   0.004149   0.017823  -0.001071   0.003006  -0.087001
     4  H   -0.035746  -0.000949   0.000354   0.000025   0.000040   0.014444
     5  C    0.487443  -0.380293  -0.747078  -0.101351  -0.084845   0.201129
     6  C   -0.134233   0.035747  -0.038565   0.028888  -0.017689  -0.028236
     7  C    5.428157  -0.253085  -0.236388   0.014195  -0.005624   0.030582
     8  C   -0.253085   5.445920   0.244327  -0.010106   0.000745  -0.057730
     9  C   -0.236388   0.244327   6.424267   0.514875   0.454348  -0.157042
    10  H    0.014195  -0.010106   0.514875   0.546275  -0.053193  -0.104062
    11  H   -0.005624   0.000745   0.454348  -0.053193   0.574927  -0.017657
    12  C    0.030582  -0.057730  -0.157042  -0.104062  -0.017657   7.379212
    13  C    0.022285  -0.010716  -0.225311   0.000109  -0.010390  -0.546655
    14  C    0.296995  -0.031482   0.002968   0.000312  -0.000484   0.001857
    15  H   -0.086821   0.005309   0.001032  -0.000002   0.000033  -0.001758
    16  H   -0.023681  -0.006336  -0.000224  -0.000055   0.000163   0.000304
    17  H   -0.019439  -0.001552   0.001028   0.000066  -0.000059   0.000150
    18  C   -0.002700   0.327051  -0.000395   0.007400  -0.015779   0.000896
    19  H    0.000116  -0.053680  -0.002528   0.000566   0.000186  -0.000129
    20  H    0.004710  -0.073885  -0.006793  -0.008164   0.003208   0.006661
    21  H   -0.000453  -0.023936  -0.009518  -0.000268   0.000671  -0.002134
    22  C    0.000142  -0.000053   0.010258  -0.002056   0.004143  -0.247765
    23  H   -0.000010   0.000001  -0.001885  -0.000140   0.000177  -0.010504
    24  H   -0.000036   0.000015   0.002114   0.000151  -0.000259   0.065746
    25  H    0.000012   0.000001   0.000390   0.000010  -0.000129   0.018306
    26  C    0.002603   0.000904   0.020660   0.000196  -0.000714  -0.084789
    27  H   -0.000807  -0.000015  -0.000584   0.000034  -0.000002  -0.016689
    28  H   -0.000781   0.000000   0.000146   0.000013  -0.000086  -0.006921
    29  H    0.002846  -0.000000  -0.000434  -0.000015   0.000073   0.022255
              13         14         15         16         17         18
     1  O    0.715701  -0.000007  -0.000000   0.000000  -0.000000   0.000314
     2  O   -0.000012  -0.006589   0.004097   0.002430   0.004198  -0.097308
     3  N    0.001580  -0.032413   0.004635  -0.000792  -0.001689  -0.000490
     4  H    0.000587  -0.010722   0.002439   0.000806   0.000903   0.000021
     5  C    0.084295  -0.086419   0.022399  -0.004766  -0.010628  -0.241186
     6  C    0.105909   0.010094   0.006281  -0.001443  -0.001102  -0.000154
     7  C    0.022285   0.296995  -0.086821  -0.023681  -0.019439  -0.002700
     8  C   -0.010716  -0.031482   0.005309  -0.006336  -0.001552   0.327051
     9  C   -0.225311   0.002968   0.001032  -0.000224   0.001028  -0.000395
    10  H    0.000109   0.000312  -0.000002  -0.000055   0.000066   0.007400
    11  H   -0.010390  -0.000484   0.000033   0.000163  -0.000059  -0.015779
    12  C   -0.546655   0.001857  -0.001758   0.000304   0.000150   0.000896
    13  C    5.647816   0.000159  -0.000044  -0.000006  -0.000004   0.001624
    14  C    0.000159   5.022155   0.389735   0.413122   0.408606   0.000708
    15  H   -0.000044   0.389735   0.581502  -0.027147  -0.025499   0.000214
    16  H   -0.000006   0.413122  -0.027147   0.509505  -0.025893  -0.000164
    17  H   -0.000004   0.408606  -0.025499  -0.025893   0.504698   0.000162
    18  C    0.001624   0.000708   0.000214  -0.000164   0.000162   5.291650
    19  H   -0.000012   0.000028  -0.000004   0.000040  -0.000040   0.397443
    20  H    0.001071   0.000119  -0.000014  -0.000026  -0.000003   0.380589
    21  H   -0.000159  -0.000166  -0.000005   0.000008  -0.000009   0.401226
    22  C    0.262857  -0.000004   0.000002   0.000000  -0.000000   0.000024
    23  H   -0.021581  -0.000001   0.000000  -0.000000   0.000000  -0.000001
    24  H   -0.101575   0.000003   0.000000  -0.000000   0.000000   0.000000
    25  H   -0.031756   0.000000   0.000000  -0.000000  -0.000000  -0.000000
    26  C   -0.052942   0.000305   0.000350  -0.000009  -0.000044   0.000002
    27  H    0.006664  -0.000080  -0.000008   0.000003  -0.000004  -0.000000
    28  H   -0.001107   0.000033  -0.000006  -0.000002   0.000001   0.000000
    29  H   -0.001553  -0.000075   0.000100  -0.000001  -0.000001  -0.000000
              19         20         21         22         23         24
     1  O    0.000001   0.000217  -0.000010  -0.105906   0.001451   0.005197
     2  O    0.006839   0.004372   0.000643   0.000000   0.000000  -0.000000
     3  N    0.000009   0.000103   0.000011  -0.000265   0.000030   0.000255
     4  H   -0.000001   0.000001  -0.000001   0.000116  -0.000010  -0.000057
     5  C    0.023871   0.045673   0.001224   0.003183  -0.000012  -0.000725
     6  C    0.000010  -0.001244   0.000168  -0.024922   0.006970  -0.022352
     7  C    0.000116   0.004710  -0.000453   0.000142  -0.000010  -0.000036
     8  C   -0.053680  -0.073885  -0.023936  -0.000053   0.000001   0.000015
     9  C   -0.002528  -0.006793  -0.009518   0.010258  -0.001885   0.002114
    10  H    0.000566  -0.008164  -0.000268  -0.002056  -0.000140   0.000151
    11  H    0.000186   0.003208   0.000671   0.004143   0.000177  -0.000259
    12  C   -0.000129   0.006661  -0.002134  -0.247765  -0.010504   0.065746
    13  C   -0.000012   0.001071  -0.000159   0.262857  -0.021581  -0.101575
    14  C    0.000028   0.000119  -0.000166  -0.000004  -0.000001   0.000003
    15  H   -0.000004  -0.000014  -0.000005   0.000002   0.000000   0.000000
    16  H    0.000040  -0.000026   0.000008   0.000000  -0.000000  -0.000000
    17  H   -0.000040  -0.000003  -0.000009  -0.000000   0.000000   0.000000
    18  C    0.397443   0.380589   0.401226   0.000024  -0.000001   0.000000
    19  H    0.512459  -0.025422  -0.010727  -0.000000   0.000000   0.000000
    20  H   -0.025422   0.536869  -0.021832   0.000042  -0.000000  -0.000001
    21  H   -0.010727  -0.021832   0.491209  -0.000010   0.000000   0.000000
    22  C   -0.000000   0.000042  -0.000010   5.449708   0.399236   0.395035
    23  H    0.000000  -0.000000   0.000000   0.399236   0.498255  -0.028163
    24  H    0.000000  -0.000001   0.000000   0.395035  -0.028163   0.551574
    25  H   -0.000000  -0.000001   0.000000   0.380118  -0.008328  -0.022298
    26  C    0.000000  -0.000017   0.000002  -0.036230  -0.008838   0.015933
    27  H    0.000000   0.000000  -0.000000  -0.010461   0.000773  -0.002029
    28  H   -0.000000  -0.000000   0.000000   0.002472   0.000303  -0.006278
    29  H    0.000000   0.000000  -0.000000   0.002133   0.000150   0.000544
              25         26         27         28         29
     1  O    0.006461   0.000635  -0.000054  -0.000202   0.000021
     2  O    0.000000   0.000011  -0.000000  -0.000000   0.000000
     3  N    0.000018  -0.025181  -0.002260   0.000527   0.002234
     4  H   -0.000002  -0.007037   0.000518   0.000687   0.002351
     5  C   -0.000111   0.000806   0.000357   0.000146  -0.000291
     6  C   -0.000890   0.200511  -0.032116  -0.050688  -0.046844
     7  C    0.000012   0.002603  -0.000807  -0.000781   0.002846
     8  C    0.000001   0.000904  -0.000015   0.000000  -0.000000
     9  C    0.000390   0.020660  -0.000584   0.000146  -0.000434
    10  H    0.000010   0.000196   0.000034   0.000013  -0.000015
    11  H   -0.000129  -0.000714  -0.000002  -0.000086   0.000073
    12  C    0.018306  -0.084789  -0.016689  -0.006921   0.022255
    13  C   -0.031756  -0.052942   0.006664  -0.001107  -0.001553
    14  C    0.000000   0.000305  -0.000080   0.000033  -0.000075
    15  H    0.000000   0.000350  -0.000008  -0.000006   0.000100
    16  H   -0.000000  -0.000009   0.000003  -0.000002  -0.000001
    17  H   -0.000000  -0.000044  -0.000004   0.000001  -0.000001
    18  C   -0.000000   0.000002  -0.000000   0.000000  -0.000000
    19  H   -0.000000   0.000000   0.000000  -0.000000   0.000000
    20  H   -0.000001  -0.000017   0.000000  -0.000000   0.000000
    21  H    0.000000   0.000002  -0.000000   0.000000  -0.000000
    22  C    0.380118  -0.036230  -0.010461   0.002472   0.002133
    23  H   -0.008328  -0.008838   0.000773   0.000303   0.000150
    24  H   -0.022298   0.015933  -0.002029  -0.006278   0.000544
    25  H    0.494460   0.002050   0.000132   0.000483  -0.000033
    26  C    0.002050   5.225892   0.424827   0.434639   0.386047
    27  H    0.000132   0.424827   0.484737  -0.029278  -0.016309
    28  H    0.000483   0.434639  -0.029278   0.505456  -0.023951
    29  H   -0.000033   0.386047  -0.016309  -0.023951   0.516576
 Mulliken charges:
               1
     1  O   -0.365117
     2  O   -0.385656
     3  N   -0.207163
     4  H    0.279596
     5  C   -0.042096
     6  C    0.250787
     7  C    0.166948
     8  C    0.145142
     9  C   -0.296468
    10  H    0.160075
    11  H    0.155849
    12  C   -0.136757
    13  C    0.153166
    14  C   -0.378759
    15  H    0.123181
    16  H    0.164165
    17  H    0.166156
    18  C   -0.451146
    19  H    0.150974
    20  H    0.153765
    21  H    0.174067
    22  C   -0.481796
    23  H    0.172127
    24  H    0.147206
    25  H    0.161105
    26  C   -0.500571
    27  H    0.192651
    28  H    0.174394
    29  H    0.154176
 Sum of Mulliken charges =  -0.00000
 Mulliken charges with hydrogens summed into heavy atoms:
               1
     1  O   -0.365117
     2  O   -0.385656
     3  N    0.072432
     5  C   -0.042096
     6  C    0.250787
     7  C    0.166948
     8  C    0.145142
     9  C    0.019456
    12  C   -0.136757
    13  C    0.153166
    14  C    0.074743
    18  C    0.027661
    22  C   -0.001357
    26  C    0.020649
 Electronic spatial extent (au):  <R**2>=          50673.4237
 Charge=              0.0000 electrons
 Dipole moment (field-independent basis, Debye):
    X=              1.2014    Y=              8.6165    Z=              0.4035  Tot=              8.7092
 Quadrupole moment (field-independent basis, Debye-Ang):
   XX=           -108.9152   YY=            120.3831   ZZ=            -83.9653
   XY=              3.0892   XZ=              1.6382   YZ=              6.7395
 Traceless Quadrupole moment (field-independent basis, Debye-Ang):
   XX=            -84.7494   YY=            144.5489   ZZ=            -59.7995
   XY=              3.0892   XZ=              1.6382   YZ=              6.7395
 Octapole moment (field-independent basis, Debye-Ang**2):
  XXX=            543.1686  YYY=            838.5543  ZZZ=            -89.3466  XYY=             19.4114
  XXY=          -1128.6094  XXZ=            -37.0223  XZZ=            131.7344  YZZ=           -942.3943
  YYZ=             73.8473  XYZ=             18.6904
 Hexadecapole moment (field-independent basis, Debye-Ang**3):
 XXXX=          -4711.1285 YYYY=          -5995.1921 ZZZZ=           -234.5022 XXXY=           5437.6607
 XXXZ=             45.8361 YYYX=            918.5333 YYYZ=            495.3341 ZZZX=              2.4191
 ZZZY=          -1026.4365 XXYY=         -12498.0421 XXZZ=           -662.1226 YYZZ=         -10862.8343
 XXYZ=           -409.7087 YYXZ=            207.3387 ZZXY=           1406.4273
 N-N= 8.980488237520D+02 E-N=-3.271909700913D+03  KE= 6.305537461563D+02
 No NMR shielding tensors so no spin-rotation constants.
 Leave Link  601 at Tue Jan 20 22:03:05 2026, MaxMem=  2147483648 cpu:               3.5 elap:               0.1
 (Enter /data/home/wyx/g16/l9999.exe)
 1\1\GINC-CN012\SP\RCAM-B3LYP\TZVP\C11H15N1O2\WYX\20-Jan-2026\0\\#p CAM
 -B3LYP/TZVP em=gd3bj SCRF=(Solvent=TetraHydroFuran,NonEquilibrium=Read
 ) Geom=Check Guess=Read NoSymm\\Title Card Required\\0,1\O,0,1.3945220
 005,9.8211866469,0.3945305353\O,0,-4.8762889793,9.7402731996,0.1870816
 674\N,0,-2.119093892,12.9160131106,0.2510925989\H,0,-2.4316304625,13.8
 776595666,0.2028378196\C,0,-2.6969141816,10.6323332674,0.1926468445\C,
 0,-0.7728057445,12.7417115393,0.3864908624\C,0,-3.0923761221,11.984501
 3972,0.1641778763\C,0,-3.6542766842,9.5449293575,0.1822849717\C,0,-1.2
 583982383,10.3215110855,0.2415180553\H,0,-1.0564395505,9.5275944052,0.
 9726277758\H,0,-0.9623615762,9.8094358106,-0.6959598527\C,0,-0.2994973
 216,11.4231421917,0.4441503941\C,0,1.0730758362,10.9925573426,0.642344
 9869\C,0,-4.4829110014,12.5062596591,0.0242602602\H,0,-4.47598769,13.5
 956118672,-0.0332442812\H,0,-4.961492716,12.1128292531,-0.8712659815\H
 ,0,-5.1063355443,12.2047306163,0.8641589114\C,0,-3.1463452612,8.120206
 4333,0.2047959073\H,0,-3.9394077773,7.471059059,-0.1588442099\H,0,-2.2
 524203394,7.9653081326,-0.3963472504\H,0,-2.9103362683,7.8240474218,1.
 2303683466\C,0,2.1297812824,11.9200948896,1.1934823237\H,0,2.633167077
 1,12.4549388249,0.385004468\H,0,1.7360388295,12.6535136314,1.892425968
 \H,0,2.8746018547,11.3078198525,1.6977974643\C,0,0.025601032,14.003992
 0756,0.4113642378\H,0,0.3229548738,14.2927380054,1.4218681424\H,0,0.93
 02988668,13.9110325722,-0.1851100019\H,0,-0.5538933323,14.8288032352,-
 0.0045388403\\Version=ES64L-G16RevA.03\HF=-633.3166724\RMSD=9.319e-09\
 Dipole=0.4726632,3.3899912,0.1587338\Quadrupole=-63.0091108,107.468596
 9,-44.4594862,2.2967453,1.2179707,5.0106786\PG=C01 [X(C11H15N1O2)]\\@


 MODELS ARE TO BE USED, NOT BELIEVED.

    -- PARAPHRASED BY H. THIEL IN "PRINCIPLES OF ECONOMETRICS"
 Job cpu time:       0 days  0 hours 16 minutes 36.1 seconds.
 Elapsed time:       0 days  0 hours  0 minutes 32.2 seconds.
 File lengths (MBytes):  RWF=    334 Int=      0 D2E=      0 Chk=     67 Scr=      1
 Normal termination of Gaussian 16 at Tue Jan 20 22:03:05 2026.
