 Entering Gaussian System, Link 0=g16
 Input=DDL-S0min-S1-cLR.gjf
 Output=DDL-S0min-S1-cLR.log
 Initial command:
 /data/home/wyx/g16/l1.exe "/scr/tmp/wyx/13032/Gau-1809335.inp" -scrdir="/scr/tmp/wyx/13032/"
 Entering Link 1 = /data/home/wyx/g16/l1.exe PID=   1809336.
  
 Copyright (c) 1988,1990,1992,1993,1995,1998,2003,2009,2016,
            Gaussian, Inc.  All Rights Reserved.
  
 This is part of the Gaussian(R) 16 program.  It is based on
 the Gaussian(R) 09 system (copyright 2009, Gaussian, Inc.),
 the Gaussian(R) 03 system (copyright 2003, Gaussian, Inc.),
 the Gaussian(R) 98 system (copyright 1998, Gaussian, Inc.),
 the Gaussian(R) 94 system (copyright 1995, Gaussian, Inc.),
 the Gaussian 92(TM) system (copyright 1992, Gaussian, Inc.),
 the Gaussian 90(TM) system (copyright 1990, Gaussian, Inc.),
 the Gaussian 88(TM) system (copyright 1988, Gaussian, Inc.),
 the Gaussian 86(TM) system (copyright 1986, Carnegie Mellon
 University), and the Gaussian 82(TM) system (copyright 1983,
 Carnegie Mellon University). Gaussian is a federally registered
 trademark of Gaussian, Inc.
  
 This software contains proprietary and confidential information,
 including trade secrets, belonging to Gaussian, Inc.
  
 This software is provided under written license and may be
 used, copied, transmitted, or stored only in accord with that
 written license.
  
 The following legend is applicable only to US Government
 contracts under FAR:
  
                    RESTRICTED RIGHTS LEGEND
  
 Use, reproduction and disclosure by the US Government is
 subject to restrictions as set forth in subparagraphs (a)
 and (c) of the Commercial Computer Software - Restricted
 Rights clause in FAR 52.227-19.
  
 Gaussian, Inc.
 340 Quinnipiac St., Bldg. 40, Wallingford CT 06492
  
  
 ---------------------------------------------------------------
 Warning -- This program may not be used in any manner that
 competes with the business of Gaussian, Inc. or will provide
 assistance to any competitor of Gaussian, Inc.  The licensee
 of this program is prohibited from giving any competitor of
 Gaussian, Inc. access to this program.  By using this program,
 the user acknowledges that Gaussian, Inc. is engaged in the
 business of creating and licensing software in the field of
 computational chemistry and represents and warrants to the
 licensee that it is not a competitor of Gaussian, Inc. and that
 it will not use this program in any manner prohibited above.
 ---------------------------------------------------------------
  

 Cite this work as:
 Gaussian 16, Revision A.03,
 M. J. Frisch, G. W. Trucks, H. B. Schlegel, G. E. Scuseria, 
 M. A. Robb, J. R. Cheeseman, G. Scalmani, V. Barone, 
 G. A. Petersson, H. Nakatsuji, X. Li, M. Caricato, A. V. Marenich, 
 J. Bloino, B. G. Janesko, R. Gomperts, B. Mennucci, H. P. Hratchian, 
 J. V. Ortiz, A. F. Izmaylov, J. L. Sonnenberg, D. Williams-Young, 
 F. Ding, F. Lipparini, F. Egidi, J. Goings, B. Peng, A. Petrone, 
 T. Henderson, D. Ranasinghe, V. G. Zakrzewski, J. Gao, N. Rega, 
 G. Zheng, W. Liang, M. Hada, M. Ehara, K. Toyota, R. Fukuda, 
 J. Hasegawa, M. Ishida, T. Nakajima, Y. Honda, O. Kitao, H. Nakai, 
 T. Vreven, K. Throssell, J. A. Montgomery, Jr., J. E. Peralta, 
 F. Ogliaro, M. J. Bearpark, J. J. Heyd, E. N. Brothers, K. N. Kudin, 
 V. N. Staroverov, T. A. Keith, R. Kobayashi, J. Normand, 
 K. Raghavachari, A. P. Rendell, J. C. Burant, S. S. Iyengar, 
 J. Tomasi, M. Cossi, J. M. Millam, M. Klene, C. Adamo, R. Cammi, 
 J. W. Ochterski, R. L. Martin, K. Morokuma, O. Farkas, 
 J. B. Foresman, and D. J. Fox, Gaussian, Inc., Wallingford CT, 2016.
 
 ******************************************
 Gaussian 16:  ES64L-G16RevA.03 25-Dec-2016
                20-Jan-2026 
 ******************************************
 %nprocshared=32
 Will use up to   32 processors via shared memory.
 %mem=16GB
 %oldchk=DDL-S0-opt-freq.chk
 %chk=DDL-S0min-S1-cLR.chk
 Copying data from "DDL-S0-opt-freq.chk" to current chk file "DDL-S0min-S1-cLR.chk"
 IOpt=  2 FromEx=T IUOpen= 4 IOptOp= 5 NList=   0 IFRang= 0 IUIn= 4 IUOut= 2.
 ----------------------------------------------------------------------
 #p CAM-B3LYP/TZVP em=gd3bj TD=(NStates=6,Root=1) SCRF=(Solvent=TetraHy
 droFuran,CorrectedLR) Geom=Check Guess=Read
 ----------------------------------------------------------------------
 1/29=2,30=1,38=1,172=1/1;
 2/12=2,40=1/2;
 3/5=19,7=101,11=9,14=-4,25=1,30=1,70=2201,71=1,72=20,74=-40,116=-2,124=41/1,2,3,8;
 4/5=1/1;
 5/5=2,38=6,53=20/2;
 8/6=1,10=1,107=1,108=6/1;
 9/8=1,15=1,41=6,42=1,70=2,73=21/14;
 10/5=4,13=10,28=1,74=10/2;
 6/7=2,8=2,9=2,10=2,22=-1/1;
 99/5=1,9=1/99;
 Leave Link    1 at Tue Jan 20 18:25:53 2026, MaxMem=  2147483648 cpu:               1.4 elap:               0.1
 (Enter /data/home/wyx/g16/l101.exe)
 -------------------
 Title Card Required
 -------------------
 Structure from the checkpoint file:  "DDL-S0min-S1-cLR.chk"
 Charge =  0 Multiplicity = 1
 Redundant internal coordinates found in file.  (old form).
 O,0,1.3883960775,9.8336717387,0.5582315683
 O,0,-4.8624938871,9.7804897797,0.5013599976
 N,0,-2.0755189786,12.9057425299,-0.0090041963
 H,0,-2.3838893731,13.8625681037,-0.063572052
 C,0,-2.6812822897,10.6400273681,0.15989486
 C,0,-0.740633194,12.6900307684,0.267654284
 C,0,-3.0525031751,11.937883029,0.0858191433
 C,0,-3.671671872,9.5713867266,0.3018715906
 C,0,-1.2214358023,10.2796174369,0.0028412219
 H,0,-0.9669008589,9.4283125823,0.6298412022
 H,0,-1.0147658763,9.9468965913,-1.0229871782
 C,0,-0.2936872008,11.4185556739,0.3638064623
 C,0,1.0656547577,11.0043009112,0.7227901156
 C,0,-4.4450907741,12.4816792995,0.1004719844
 H,0,-4.4475660774,13.5278211779,-0.2061933153
 H,0,-5.0972683201,11.9112858027,-0.5540871906
 H,0,-4.8721953269,12.4112791319,1.1005990847
 C,0,-3.1783922666,8.1491167399,0.1948310844
 H,0,-4.0337076815,7.4797541298,0.1566583063
 H,0,-2.5539959462,8.005148551,-0.6875185976
 H,0,-2.567852293,7.8954501681,1.0639636569
 C,0,2.0797773278,11.9426549791,1.3319192407
 H,0,2.5961278604,12.501596037,0.5496536412
 H,0,1.6400497254,12.6545928673,2.0255843794
 H,0,2.8191326528,11.3372009929,1.8507580616
 C,0,0.02271256,13.9704101926,0.4248596158
 H,0,0.0390753624,14.2875882736,1.4688263161
 H,0,1.043909652,13.8924786926,0.0732762301
 H,0,-0.4631558123,14.7582941741,-0.1501495175
 Recover connectivity data from disk.
 ITRead=  0  0  0  0  0  0  0  0  0  0  0  0  0  0  0  0  0  0  0  0
 ITRead=  0  0  0  0  0  0  0  0  0
 MicOpt= -1 -1 -1 -1 -1 -1 -1 -1 -1 -1 -1 -1 -1 -1 -1 -1 -1 -1 -1 -1
 MicOpt= -1 -1 -1 -1 -1 -1 -1 -1 -1
                           ----------------------------
                           !    Current Parameters    !
                           ! (Angstroms and Degrees)  !
 --------------------------                            --------------------------
 ! Name  Definition              Value                                          !
 --------------------------------------------------------------------------------
 ! R1    R(1,13)                 1.2254                                         !
 ! R2    R(2,8)                  1.2254                                         !
 ! R3    R(3,4)                  1.0068                                         !
 ! R4    R(3,6)                  1.3802                                         !
 ! R5    R(3,7)                  1.3785                                         !
 ! R6    R(5,7)                  1.3519                                         !
 ! R7    R(5,8)                  1.4639                                         !
 ! R8    R(5,9)                  1.5119                                         !
 ! R9    R(6,12)                 1.3512                                         !
 ! R10   R(6,26)                 1.4989                                         !
 ! R11   R(7,14)                 1.4951                                         !
 ! R12   R(8,18)                 1.5092                                         !
 ! R13   R(9,10)                 1.0875                                         !
 ! R14   R(9,11)                 1.0981                                         !
 ! R15   R(9,12)                 1.5127                                         !
 ! R16   R(12,13)                1.4657                                         !
 ! R17   R(13,22)                1.51                                           !
 ! R18   R(14,15)                1.0902                                         !
 ! R19   R(14,16)                1.0859                                         !
 ! R20   R(14,17)                1.0898                                         !
 ! R21   R(18,19)                1.0868                                         !
 ! R22   R(18,20)                1.0905                                         !
 ! R23   R(18,21)                1.092                                          !
 ! R24   R(22,23)                1.0913                                         !
 ! R25   R(22,24)                1.0869                                         !
 ! R26   R(22,25)                1.0874                                         !
 ! R27   R(26,27)                1.0912                                         !
 ! R28   R(26,28)                1.0828                                         !
 ! R29   R(26,29)                1.0897                                         !
 ! A1    A(4,3,6)              117.1059                                         !
 ! A2    A(4,3,7)              116.9961                                         !
 ! A3    A(6,3,7)              124.1899                                         !
 ! A4    A(7,5,8)              121.355                                          !
 ! A5    A(7,5,9)              119.2289                                         !
 ! A6    A(8,5,9)              119.2957                                         !
 ! A7    A(3,6,12)             118.7675                                         !
 ! A8    A(3,6,26)             112.3373                                         !
 ! A9    A(12,6,26)            128.8951                                         !
 ! A10   A(3,7,5)              118.894                                          !
 ! A11   A(3,7,14)             113.9193                                         !
 ! A12   A(5,7,14)             127.186                                          !
 ! A13   A(2,8,5)              123.2762                                         !
 ! A14   A(2,8,18)             119.3402                                         !
 ! A15   A(5,8,18)             117.3836                                         !
 ! A16   A(5,9,10)             110.6541                                         !
 ! A17   A(5,9,11)             110.5497                                         !
 ! A18   A(5,9,12)             112.8262                                         !
 ! A19   A(10,9,11)            104.9145                                         !
 ! A20   A(10,9,12)            107.9551                                         !
 ! A21   A(11,9,12)            109.6113                                         !
 ! A22   A(6,12,9)             119.2528                                         !
 ! A23   A(6,12,13)            126.1692                                         !
 ! A24   A(9,12,13)            114.4848                                         !
 ! A25   A(1,13,12)            118.775                                          !
 ! A26   A(1,13,22)            118.0959                                         !
 ! A27   A(12,13,22)           123.0962                                         !
 ! A28   A(7,14,15)            110.3893                                         !
 ! A29   A(7,14,16)            111.2515                                         !
 ! A30   A(7,14,17)            110.521                                          !
 ! A31   A(15,14,16)           109.4595                                         !
 ! A32   A(15,14,17)           108.6182                                         !
 ! A33   A(16,14,17)           106.492                                          !
 ! A34   A(8,18,19)            109.008                                          !
 ! A35   A(8,18,20)            111.6516                                         !
 ! A36   A(8,18,21)            110.1944                                         !
 ! A37   A(19,18,20)           109.9321                                         !
 ! A38   A(19,18,21)           108.9598                                         !
 ! A39   A(20,18,21)           107.0493                                         !
 ! A40   A(13,22,23)           110.2974                                         !
 ! A41   A(13,22,24)           113.128                                          !
 ! A42   A(13,22,25)           107.6454                                         !
 ! A43   A(23,22,24)           108.2646                                         !
 ! A44   A(23,22,25)           107.7874                                         !
 ! A45   A(24,22,25)           109.5892                                         !
 ! A46   A(6,26,27)            110.8708                                         !
 ! A47   A(6,26,28)            112.6279                                         !
 ! A48   A(6,26,29)            109.5846                                         !
 ! A49   A(27,26,28)           108.5063                                         !
 ! A50   A(27,26,29)           107.539                                          !
 ! A51   A(28,26,29)           107.5295                                         !
 ! D1    D(4,3,6,12)           179.2483                                         !
 ! D2    D(4,3,6,26)            -0.6253                                         !
 ! D3    D(7,3,6,12)            14.6251                                         !
 ! D4    D(7,3,6,26)          -165.2486                                         !
 ! D5    D(4,3,7,5)            179.933                                          !
 ! D6    D(4,3,7,14)            -0.3445                                         !
 ! D7    D(6,3,7,5)            -15.4284                                         !
 ! D8    D(6,3,7,14)           164.2941                                         !
 ! D9    D(8,5,7,3)            178.1682                                         !
 ! D10   D(8,5,7,14)            -1.5134                                         !
 ! D11   D(9,5,7,3)             -5.8481                                         !
 ! D12   D(9,5,7,14)           174.4703                                         !
 ! D13   D(7,5,8,2)             -7.8593                                         !
 ! D14   D(7,5,8,18)           172.1965                                         !
 ! D15   D(9,5,8,2)            176.1596                                         !
 ! D16   D(9,5,8,18)            -3.7846                                         !
 ! D17   D(7,5,9,10)           145.7681                                         !
 ! D18   D(7,5,9,11)           -98.4429                                         !
 ! D19   D(7,5,9,12)            24.6971                                         !
 ! D20   D(8,5,9,10)           -38.1645                                         !
 ! D21   D(8,5,9,11)            77.6245                                         !
 ! D22   D(8,5,9,12)          -159.2354                                         !
 ! D23   D(3,6,12,9)             7.3526                                         !
 ! D24   D(3,6,12,13)         -176.3612                                         !
 ! D25   D(26,6,12,9)         -172.7975                                         !
 ! D26   D(26,6,12,13)           3.4887                                         !
 ! D27   D(3,6,26,27)           91.687                                          !
 ! D28   D(3,6,26,28)         -146.513                                          !
 ! D29   D(3,6,26,29)          -26.8661                                         !
 ! D30   D(12,6,26,27)         -88.1708                                         !
 ! D31   D(12,6,26,28)          33.6293                                         !
 ! D32   D(12,6,26,29)         153.2762                                         !
 ! D33   D(3,7,14,15)           13.6176                                         !
 ! D34   D(3,7,14,16)          135.3458                                         !
 ! D35   D(3,7,14,17)         -106.5678                                         !
 ! D36   D(5,7,14,15)         -166.6874                                         !
 ! D37   D(5,7,14,16)          -44.9592                                         !
 ! D38   D(5,7,14,17)           73.1272                                         !
 ! D39   D(2,8,18,19)            9.1984                                         !
 ! D40   D(2,8,18,20)          130.8456                                         !
 ! D41   D(2,8,18,21)         -110.3301                                         !
 ! D42   D(5,8,18,19)         -170.8551                                         !
 ! D43   D(5,8,18,20)          -49.2079                                         !
 ! D44   D(5,8,18,21)           69.6164                                         !
 ! D45   D(5,9,12,6)           -25.483                                          !
 ! D46   D(5,9,12,13)          157.8108                                         !
 ! D47   D(10,9,12,6)         -148.077                                          !
 ! D48   D(10,9,12,13)          35.2168                                         !
 ! D49   D(11,9,12,6)           98.1773                                         !
 ! D50   D(11,9,12,13)         -78.5289                                         !
 ! D51   D(6,12,13,1)         -168.1171                                         !
 ! D52   D(6,12,13,22)          14.0106                                         !
 ! D53   D(9,12,13,1)            8.3227                                         !
 ! D54   D(9,12,13,22)        -169.5495                                         !
 ! D55   D(1,13,22,23)          97.2933                                         !
 ! D56   D(1,13,22,24)        -141.2852                                         !
 ! D57   D(1,13,22,25)         -20.0578                                         !
 ! D58   D(12,13,22,23)        -84.8209                                         !
 ! D59   D(12,13,22,24)         36.6007                                         !
 ! D60   D(12,13,22,25)        157.8281                                         !
 --------------------------------------------------------------------------------
 NAtoms=     29 NQM=       29 NQMF=       0 NMMI=      0 NMMIF=      0
                NMic=       0 NMicF=      0.
                    Isotopes and Nuclear Properties:
 (Nuclear quadrupole moments (NQMom) in fm**2, nuclear magnetic moments (NMagM)
  in nuclear magnetons)

  Atom         1           2           3           4           5           6           7           8           9          10
 IAtWgt=          16          16          14           1          12          12          12          12          12           1
 AtmWgt=  15.9949146  15.9949146  14.0030740   1.0078250  12.0000000  12.0000000  12.0000000  12.0000000  12.0000000   1.0078250
 NucSpn=           0           0           2           1           0           0           0           0           0           1
 AtZEff=   5.6000000   5.6000000   4.5500000   1.0000000   3.6000000   3.6000000   3.6000000   3.6000000   3.6000000   1.0000000
 NQMom=    0.0000000   0.0000000   2.0440000   0.0000000   0.0000000   0.0000000   0.0000000   0.0000000   0.0000000   0.0000000
 NMagM=    0.0000000   0.0000000   0.4037610   2.7928460   0.0000000   0.0000000   0.0000000   0.0000000   0.0000000   2.7928460
 AtZNuc=   8.0000000   8.0000000   7.0000000   1.0000000   6.0000000   6.0000000   6.0000000   6.0000000   6.0000000   1.0000000

  Atom        11          12          13          14          15          16          17          18          19          20
 IAtWgt=           1          12          12          12           1           1           1          12           1           1
 AtmWgt=   1.0078250  12.0000000  12.0000000  12.0000000   1.0078250   1.0078250   1.0078250  12.0000000   1.0078250   1.0078250
 NucSpn=           1           0           0           0           1           1           1           0           1           1
 AtZEff=   1.0000000   3.6000000   3.6000000   3.6000000   1.0000000   1.0000000   1.0000000   3.6000000   1.0000000   1.0000000
 NQMom=    0.0000000   0.0000000   0.0000000   0.0000000   0.0000000   0.0000000   0.0000000   0.0000000   0.0000000   0.0000000
 NMagM=    2.7928460   0.0000000   0.0000000   0.0000000   2.7928460   2.7928460   2.7928460   0.0000000   2.7928460   2.7928460
 AtZNuc=   1.0000000   6.0000000   6.0000000   6.0000000   1.0000000   1.0000000   1.0000000   6.0000000   1.0000000   1.0000000

  Atom        21          22          23          24          25          26          27          28          29
 IAtWgt=           1          12           1           1           1          12           1           1           1
 AtmWgt=   1.0078250  12.0000000   1.0078250   1.0078250   1.0078250  12.0000000   1.0078250   1.0078250   1.0078250
 NucSpn=           1           0           1           1           1           0           1           1           1
 AtZEff=   1.0000000   3.6000000   1.0000000   1.0000000   1.0000000   3.6000000   1.0000000   1.0000000   1.0000000
 NQMom=    0.0000000   0.0000000   0.0000000   0.0000000   0.0000000   0.0000000   0.0000000   0.0000000   0.0000000
 NMagM=    2.7928460   0.0000000   2.7928460   2.7928460   2.7928460   0.0000000   2.7928460   2.7928460   2.7928460
 AtZNuc=   1.0000000   6.0000000   1.0000000   1.0000000   1.0000000   6.0000000   1.0000000   1.0000000   1.0000000
 Leave Link  101 at Tue Jan 20 18:25:55 2026, MaxMem=  2147483648 cpu:               6.6 elap:               0.2
 (Enter /data/home/wyx/g16/l202.exe)
                          Input orientation:                          
 ---------------------------------------------------------------------
 Center     Atomic      Atomic             Coordinates (Angstroms)
 Number     Number       Type             X           Y           Z
 ---------------------------------------------------------------------
      1          8           0        1.388396    9.833672    0.558232
      2          8           0       -4.862494    9.780490    0.501360
      3          7           0       -2.075519   12.905743   -0.009004
      4          1           0       -2.383889   13.862568   -0.063572
      5          6           0       -2.681282   10.640027    0.159895
      6          6           0       -0.740633   12.690031    0.267654
      7          6           0       -3.052503   11.937883    0.085819
      8          6           0       -3.671672    9.571387    0.301872
      9          6           0       -1.221436   10.279617    0.002841
     10          1           0       -0.966901    9.428313    0.629841
     11          1           0       -1.014766    9.946897   -1.022987
     12          6           0       -0.293687   11.418556    0.363806
     13          6           0        1.065655   11.004301    0.722790
     14          6           0       -4.445091   12.481679    0.100472
     15          1           0       -4.447566   13.527821   -0.206193
     16          1           0       -5.097268   11.911286   -0.554087
     17          1           0       -4.872195   12.411279    1.100599
     18          6           0       -3.178392    8.149117    0.194831
     19          1           0       -4.033708    7.479754    0.156658
     20          1           0       -2.553996    8.005149   -0.687519
     21          1           0       -2.567852    7.895450    1.063964
     22          6           0        2.079777   11.942655    1.331919
     23          1           0        2.596128   12.501596    0.549654
     24          1           0        1.640050   12.654593    2.025584
     25          1           0        2.819133   11.337201    1.850758
     26          6           0        0.022713   13.970410    0.424860
     27          1           0        0.039075   14.287588    1.468826
     28          1           0        1.043910   13.892479    0.073276
     29          1           0       -0.463156   14.758294   -0.150150
 ---------------------------------------------------------------------
                    Distance matrix (angstroms):
                    1          2          3          4          5
     1  O    0.000000
     2  O    6.251375   0.000000
     3  N    4.664556   4.218401   0.000000
     4  H    5.554168   4.808949   1.006770   0.000000
     5  C    4.167873   2.369196   2.351370   3.243940   0.000000
     6  C    3.574351   5.050721   1.380214   2.045690   2.824933
     7  C    4.936848   2.846592   1.378493   2.042982   1.351932
     8  C    5.073342   1.225388   3.709754   4.495127   1.463906
     9  C    2.705282   3.708767   2.761545   3.767392   1.511857
    10  H    2.390997   3.913589   3.705358   4.706517   2.151327
    11  H    2.878934   4.142021   3.302746   4.257635   2.157989
    12  C    2.319281   4.855530   2.350667   3.244194   2.519583
    13  C    1.225404   6.057202   3.744059   4.548342   3.806453
    14  C    6.422699   2.762492   2.409706   2.486426   2.550732
    15  H    6.949068   3.836051   2.460177   2.095509   3.404869
    16  H    6.900549   2.389431   3.227542   3.377948   2.821853
    17  H    6.792145   2.698191   3.049117   3.106960   2.970245
    18  C    4.881121   2.364643   4.887061   5.774213   2.540271
    19  H    5.924643   2.469634   5.770901   6.596265   3.437498
    20  H    4.520824   3.145542   4.970427   5.893014   2.770722
    21  H    4.434452   3.022462   5.147493   6.075498   2.891870
    22  C    2.350407   7.318464   4.471253   5.055471   5.073280
    23  H    2.928568   7.939634   4.722258   5.198929   5.609671
    24  H    3.189679   7.270956   4.243593   4.692107   5.119881
    25  H    2.445042   7.953088   5.465954   6.092091   5.796519
    26  C    4.358381   6.436344   2.392557   2.458033   4.298051
    27  H    4.742069   6.728693   2.926600   2.898214   4.734802
    28  H    4.102166   7.209529   3.272805   3.430660   4.946008
    29  H    5.308668   6.675116   2.459997   2.121094   4.687892
                    6          7          8          9         10
     6  C    0.000000
     7  C    2.437936   0.000000
     8  C    4.279965   2.455678   0.000000
     9  C    2.472122   2.471748   2.568008   0.000000
    10  H    3.289556   3.308117   2.728337   1.087491   0.000000
    11  H    3.043959   3.057099   2.992559   1.098062   1.732935
    12  C    1.351168   2.821000   3.850539   1.512678   2.117796
    13  C    2.512272   4.270425   4.967160   2.504850   2.573647
    14  C    3.714077   1.495068   3.018036   3.905196   4.658442
    15  H    3.829853   2.135269   4.063682   4.582842   5.442422
    16  H    4.501330   2.142721   2.870561   4.242003   4.962537
    17  H    4.223897   2.136624   3.184998   4.367734   4.936702
    18  C    5.154403   3.792424   1.509183   2.899236   2.591577
    19  H    6.164709   4.565380   2.127694   3.971368   3.664162
    20  H    5.113586   4.038931   2.163607   2.724981   2.505934
    21  H    5.192383   4.187233   2.146617   2.936507   2.258578
    22  C    3.105792   5.281391   6.305797   3.928123   4.012117
    23  H    3.353954   5.695608   6.923354   4.450841   4.706025
    24  H    2.959599   5.128003   6.379007   4.233214   4.376434
    25  H    4.124112   6.160514   6.902731   4.567217   4.412317
    26  C    1.498927   3.701765   5.745869   3.917647   4.653171
    27  H    2.145449   4.122097   6.113427   4.449925   5.032737
    28  H    2.160615   4.538854   6.400063   4.264917   4.927667
    29  H    2.128208   3.836029   6.115792   4.544991   5.410254
                   11         12         13         14         15
    11  H    0.000000
    12  C    2.146842   0.000000
    13  C    2.914445   1.465704   0.000000
    14  C    4.410716   4.293452   5.739185   0.000000
    15  H    5.027354   4.693465   6.134066   1.090166   0.000000
    16  H    4.554725   4.915252   6.358825   1.085878   1.776606
    17  H    5.046044   4.742478   6.113951   1.089784   1.770503
    18  C    3.065350   4.363405   5.142252   4.514923   5.540946
    19  H    4.073373   5.435515   6.224663   5.019128   6.073060
    20  H    2.500431   4.226775   4.907724   4.923058   5.858088
    21  H    3.312986   4.251390   4.794135   5.048350   6.072086
    22  C    4.370908   2.616344   1.509964   6.661900   6.890918
    23  H    4.694491   3.091690   2.148073   7.055560   7.158077
    24  H    4.865537   2.833484   2.179602   6.384739   6.542356
    25  H    4.989001   3.450694   2.111355   7.559251   7.863509
    26  C    4.400146   2.572119   3.158211   4.720468   4.536243
    27  H    5.114814   3.092434   3.520002   5.024087   4.849009
    28  H    4.583400   2.827343   2.960391   5.667470   5.510661
    29  H    4.920942   3.383301   4.146294   4.593647   4.170459
                   16         17         18         19         20
    16  H    0.000000
    17  H    1.743169   0.000000
    18  C    4.289158   4.674977   0.000000
    19  H    4.612461   5.090582   1.086769   0.000000
    20  H    4.663040   5.290123   1.090476   1.782757   0.000000
    21  H    5.014277   5.069916   1.092015   1.773341   1.754969
    22  C    7.420781   6.971588   6.582724   7.659858   6.407335
    23  H    7.794553   7.489162   7.239824   8.326347   6.947835
    24  H    7.252494   6.582107   6.846047   7.903377   6.824095
    25  H    8.293507   7.802109   6.991157   8.044333   6.812924
    26  C    5.604689   5.181471   6.647364   7.658661   6.592508
    27  H    6.010076   5.270361   7.046701   8.040893   7.130420
    28  H    6.483269   6.184630   7.129433   8.179987   6.941498
    29  H    5.453771   5.149027   7.153513   8.112960   7.089806
                   21         22         23         24         25
    21  H    0.000000
    22  C    6.168641   0.000000
    23  H    6.938861   1.091317   0.000000
    24  H    6.424998   1.086916   1.765181   0.000000
    25  H    6.440831   1.087389   1.760233   1.776604   0.000000
    26  C    6.635105   3.027551   2.965713   2.628588   4.097187
    27  H    6.915158   3.111578   3.251640   2.353672   4.071778
    28  H    7.070406   2.541460   2.137960   2.387310   3.583337
    29  H    7.280278   4.073188   3.865440   3.685492   5.145962
                   26         27         28         29
    26  C    0.000000
    27  H    1.091209   0.000000
    28  H    1.082833   1.764473   0.000000
    29  H    1.089709   1.759228   1.752370   0.000000
 Stoichiometry    C11H15NO2
 Framework group  C1[X(C11H15NO2)]
 Deg. of freedom    81
 Full point group                 C1      NOp   1
 RotChk:  IX=0 Diff= 8.93D-16
 Largest Abelian subgroup         C1      NOp   1
 Largest concise Abelian subgroup C1      NOp   1
                         Standard orientation:                         
 ---------------------------------------------------------------------
 Center     Atomic      Atomic             Coordinates (Angstroms)
 Number     Number       Type             X           Y           Z
 ---------------------------------------------------------------------
      1          8           0        2.288218   -2.276543   -0.181993
      2          8           0       -3.587161   -0.244219    0.473193
      3          7           0        0.026432    1.802057   -0.268162
      4          1           0        0.055309    2.808391   -0.261635
      5          6           0       -1.288722   -0.139131   -0.091803
      6          6           0        1.230534    1.137598   -0.151447
      7          6           0       -1.205503    1.210234   -0.088376
      8          6           0       -2.562577   -0.824320    0.133650
      9          6           0       -0.059177   -0.953762   -0.423932
     10          1           0       -0.046476   -1.879248    0.146989
     11          1           0       -0.079003   -1.270431   -1.475153
     12          6           0        1.229284   -0.213528   -0.140885
     13          6           0        2.397378   -1.078165    0.049499
     14          6           0       -2.324210    2.184095    0.099555
     15          1           0       -2.003644    3.188751   -0.176791
     16          1           0       -3.191714    1.905829   -0.491324
     17          1           0       -2.649333    2.196388    1.139638
     18          6           0       -2.591353   -2.319843   -0.066891
     19          1           0       -3.621737   -2.662814   -0.025097
     20          1           0       -2.142288   -2.606932   -1.018237
     21          1           0       -2.019827   -2.816749    0.719836
     22          6           0        3.723436   -0.571150    0.563793
     23          1           0        4.318444   -0.167264   -0.257069
     24          1           0        3.620364    0.200935    1.321848
     25          1           0        4.262333   -1.419665    0.978553
     26          6           0        2.392762    2.078530   -0.048227
     27          1           0        2.617923    2.305253    0.995150
     28          1           0        3.287845    1.687921   -0.515965
     29          1           0        2.147210    3.017971   -0.542818
 ---------------------------------------------------------------------
 Rotational constants (GHZ):           1.0782823           0.4906712           0.3474065
 Leave Link  202 at Tue Jan 20 18:25:55 2026, MaxMem=  2147483648 cpu:               0.1 elap:               0.0
 (Enter /data/home/wyx/g16/l301.exe)
 Standard basis: TZVP (5D, 7F)
 Ernie: Thresh=  0.10000D-02 Tol=  0.10000D-05 Strict=F.
 There are   370 symmetry adapted cartesian basis functions of A   symmetry.
 There are   356 symmetry adapted basis functions of A   symmetry.
   356 basis functions,   610 primitive gaussians,   370 cartesian basis functions
    52 alpha electrons       52 beta electrons
       nuclear repulsion energy       900.7284104991 Hartrees.
 IExCor=20419 DFT=T Ex+Corr=CAM-B3LYP ExCW=0 ScaHFX=  1.000000
 ScaDFX=  1.000000  1.000000  1.000000  0.810000 ScalE2=  1.000000  1.000000
 IRadAn=      5 IRanWt=     -1 IRanGd=            0 ICorTp=0 IEmpDi=141
 HFx  wShort=  0.000000 wLong=  0.330000 cFull=  0.190000 cShort=  0.000000 cLong=  0.460000
 DFx  wShort=  0.000000 wLong=  0.330000 cFull=  0.190000 cShort=  0.000000 cLong=  0.460000
 NAtoms=   29 NActive=   29 NUniq=   29 SFac= 1.00D+00 NAtFMM=   60 NAOKFM=F Big=F
 Integral buffers will be    131072 words long.
 Raffenetti 1 integral format.
 Two-electron integral symmetry is turned on.
 R6Disp:  Grimme-D3(BJ) Dispersion energy=       -0.0262127042 Hartrees.
 Nuclear repulsion after empirical dispersion term =      900.7021977949 Hartrees.
 ------------------------------------------------------------------------------
 Polarizable Continuum Model (PCM)
 =================================
 Model                : PCM.
 Atomic radii         : UFF (Universal Force Field).
 Polarization charges : Total charges.
 Charge compensation  : None.
 Solution method      : On-the-fly selection.
 Cavity type          : Scaled VdW (van der Waals Surface) (Alpha=1.100).
 Cavity algorithm     : GePol (No added spheres)
                        Default sphere list used, NSphG=   29.
                        Lebedev-Laikov grids with approx.  5.0 points / Ang**2.
                        Smoothing algorithm: York/Karplus (Gamma=1.0000).
                        Polarization charges: spherical gaussians, with
                                              point-specific exponents (IZeta= 3).
                        Self-potential: point-specific (ISelfS= 7).
                        Self-field    : sphere-specific E.n sum rule (ISelfD= 2).
 1st derivatives      : Analytical E(r).r(x)/FMM algorithm (CHGder, D1EAlg=3).
                        Cavity 1st derivative terms included.
 Solvent              : TetraHydroFuran, Eps=   7.425700 Eps(inf)=   1.974025
 ------------------------------------------------------------------------------
 GePol: Number of generator spheres                  =      29
 GePol: Total number of spheres                      =      29
 GePol: Number of exposed spheres                    =      29 (100.00%)
 GePol: Number of points                             =    2087
 GePol: Average weight of points                     =       0.13
 GePol: Minimum weight of points                     =   0.28D-10
 GePol: Maximum weight of points                     =    0.20577
 GePol: Number of points with low weight             =     143
 GePol: Fraction of low-weight points (<1% of avg)   =       6.85%
 GePol: Cavity surface area                          =    268.837 Ang**2
 GePol: Cavity volume                                =    286.879 Ang**3
 Leave Link  301 at Tue Jan 20 18:25:55 2026, MaxMem=  2147483648 cpu:               1.2 elap:               0.0
 (Enter /data/home/wyx/g16/l302.exe)
 NPDir=0 NMtPBC=     1 NCelOv=     1 NCel=       1 NClECP=     1 NCelD=      1
         NCelK=      1 NCelE2=     1 NClLst=     1 CellRange=     0.0.
 One-electron integrals computed using PRISM.
 One-electron integral symmetry used in STVInt
 NBasis=   356 RedAO= T EigKep=  4.74D-05  NBF=   356
 NBsUse=   356 1.00D-06 EigRej= -1.00D+00 NBFU=   356
 Precomputing XC quadrature grid using
 IXCGrd= 4 IRadAn=           5 IRanWt=          -1 IRanGd=           0 AccXCQ= 0.00D+00.
 Generated NRdTot=       0 NPtTot=           0 NUsed=           0 NTot=          32
 NSgBfM=   366   366   366   366   366 MxSgAt=    29 MxSgA2=    29.
 Leave Link  302 at Tue Jan 20 18:25:55 2026, MaxMem=  2147483648 cpu:               6.3 elap:               0.2
 (Enter /data/home/wyx/g16/l303.exe)
 DipDrv:  MaxL=1.
 Leave Link  303 at Tue Jan 20 18:25:56 2026, MaxMem=  2147483648 cpu:               1.1 elap:               0.0
 (Enter /data/home/wyx/g16/l308.exe)
 Leave Link  308 at Tue Jan 20 18:25:56 2026, MaxMem=  2147483648 cpu:               1.3 elap:               0.1
 (Enter /data/home/wyx/g16/l401.exe)
 Initial guess from the checkpoint file:  "DDL-S0min-S1-cLR.chk"
 B after Tr=     0.000000    0.000000   -0.000000
         Rot=    1.000000   -0.000000   -0.000000   -0.000000 Ang=   0.00 deg.
 Guess basis will be translated and rotated to current coordinates.
 JPrj=2 DoOrth=T DoCkMO=T.
 Leave Link  401 at Tue Jan 20 18:25:56 2026, MaxMem=  2147483648 cpu:               4.5 elap:               0.2
 (Enter /data/home/wyx/g16/l502.exe)
 Integral symmetry usage will be decided dynamically.
 Closed shell SCF:
 Using DIIS extrapolation, IDIIS=  1040.
 NGot=  2147483648 LenX=  2147194175 LenY=  2147056834
 Requested convergence on RMS density matrix=1.00D-08 within 128 cycles.
 Requested convergence on MAX density matrix=1.00D-06.
 Requested convergence on             energy=1.00D-06.
 No special actions if energy rises.
 Fock matrices will be formed incrementally for  20 cycles.

 Cycle   1  Pass 1  IDiag  1:
 FoFJK:  IHMeth= 1 ICntrl=       0 DoSepK=T KAlg= 0 I1Cent=           0 FoldK=F
 IRaf=         1 NMat=       1 IRICut=       1 DoRegI=T DoRafI=F ISym2E= 0 IDoP0=0 IntGTp=1.
 FoFCou: FMM=F IPFlag=           0 FMFlag=      100000 FMFlg1=           0
         NFxFlg=           0 DoJE=T BraDBF=F KetDBF=F FulRan=T
         wScrn=  0.000000 ICntrl=       500 IOpCl=  0 I1Cent=           0 NGrid=           0
         NMat0=    1 NMatS0=      1 NMatT0=    0 NMatD0=    1 NMtDS0=    0 NMtDT0=    0
 Symmetry not used in FoFCou.
 Inv3:  Mode=1 IEnd=    13066707.
 Iteration    1 A*A^-1 deviation from unit magnitude is 3.11D-15 for   1359.
 Iteration    1 A*A^-1 deviation from orthogonality  is 1.80D-15 for   1388    937.
 Iteration    1 A^-1*A deviation from unit magnitude is 3.11D-15 for   1359.
 Iteration    1 A^-1*A deviation from orthogonality  is 2.15D-15 for   1125    492.
 E= -633.328952766783    
 DIIS: error= 8.42D-09 at cycle   1 NSaved=   1.
 NSaved= 1 IEnMin= 1 EnMin= -633.328952766783     IErMin= 1 ErrMin= 8.42D-09
 ErrMax= 8.42D-09  0.00D+00 EMaxC= 1.00D-01 BMatC= 3.58D-14 BMatP= 3.58D-14
 IDIUse=1 WtCom= 1.00D+00 WtEn= 0.00D+00
 Coeff-Com:  0.100D+01
 Coeff:      0.100D+01
 Gap=     0.241 Goal=   None    Shift=    0.000
 RMSDP=1.73D-09 MaxDP=1.42D-07              OVMax= 1.11D-07

 Error on total polarization charges =  0.01420
 SCF Done:  E(RCAM-B3LYP) =  -633.328952767     A.U. after    1 cycles
            NFock=  1  Conv=0.17D-08     -V/T= 2.0042
 KE= 6.307042836999D+02 PE=-3.277490927932D+03 EE= 1.112755493670D+03
 Leave Link  502 at Tue Jan 20 18:26:01 2026, MaxMem=  2147483648 cpu:             121.4 elap:               4.2
 (Enter /data/home/wyx/g16/l801.exe)
 DoSCS=F DFT=T ScalE2(SS,OS)=  1.000000  1.000000
 ExpMin= 9.52D-02 ExpMax= 2.70D+04 ExpMxC= 9.22D+02 IAcc=3 IRadAn=         5 AccDes= 0.00D+00
 HarFok:  IExCor=  205 AccDes= 0.00D+00 IRadAn=         5 IDoV=-2 UseB2=F ITyADJ=14
 ICtDFT= 12500011 ScaDFX=  1.000000  1.000000  1.000000  1.000000
 Largest valence mixing into a core orbital is  5.65D-05
 Largest core mixing into a valence orbital is  1.21D-05
 Range of M.O.s used for correlation:    15   356
 NBasis=   356 NAE=    52 NBE=    52 NFC=    14 NFV=     0
 NROrb=    342 NOA=    38 NOB=    38 NVA=   304 NVB=   304

 **** Warning!!: The largest alpha MO coefficient is  0.49905453D+02

 Leave Link  801 at Tue Jan 20 18:26:01 2026, MaxMem=  2147483648 cpu:               1.6 elap:               0.1
 (Enter /data/home/wyx/g16/l914.exe)
 RHF ground state
 Two-electron integrals replicated using symmetry.
 MDV=  2147483648 DFT=T DoStab=F Mixed=T DoRPA=T DoScal=F NonHer=T
 NEqPCM:  Using non-equilibrium solvation (IEInf=1, Eps=   7.4257, EpsInf=   1.9740)
 Inv3:  Mode=1 IEnd=    13066707.
 Iteration    1 A*A^-1 deviation from unit magnitude is 3.22D-15 for    246.
 Iteration    1 A*A^-1 deviation from orthogonality  is 2.11D-15 for   1905     93.
 Iteration    1 A^-1*A deviation from unit magnitude is 3.22D-15 for    246.
 Iteration    1 A^-1*A deviation from orthogonality  is 2.00D-15 for   1857   1481.
 Making orbital integer symmetry assigments:
 Orbital symmetries:
       Occupied  (A) (A) (A) (A) (A) (A) (A) (A) (A) (A) (A) (A)
                 (A) (A) (A) (A) (A) (A) (A) (A) (A) (A) (A) (A)
                 (A) (A) (A) (A) (A) (A) (A) (A) (A) (A) (A) (A)
                 (A) (A) (A) (A) (A) (A) (A) (A) (A) (A) (A) (A)
                 (A) (A) (A) (A)
       Virtual   (A) (A) (A) (A) (A) (A) (A) (A) (A) (A) (A) (A)
                 (A) (A) (A) (A) (A) (A) (A) (A) (A) (A) (A) (A)
                 (A) (A) (A) (A) (A) (A) (A) (A) (A) (A) (A) (A)
                 (A) (A) (A) (A) (A) (A) (A) (A) (A) (A) (A) (A)
                 (A) (A) (A) (A) (A) (A) (A) (A) (A) (A) (A) (A)
                 (A) (A) (A) (A) (A) (A) (A) (A) (A) (A) (A) (A)
                 (A) (A) (A) (A) (A) (A) (A) (A) (A) (A) (A) (A)
                 (A) (A) (A) (A) (A) (A) (A) (A) (A) (A) (A) (A)
                 (A) (A) (A) (A) (A) (A) (A) (A) (A) (A) (A) (A)
                 (A) (A) (A) (A) (A) (A) (A) (A) (A) (A) (A) (A)
                 (A) (A) (A) (A) (A) (A) (A) (A) (A) (A) (A) (A)
                 (A) (A) (A) (A) (A) (A) (A) (A) (A) (A) (A) (A)
                 (A) (A) (A) (A) (A) (A) (A) (A) (A) (A) (A) (A)
                 (A) (A) (A) (A) (A) (A) (A) (A) (A) (A) (A) (A)
                 (A) (A) (A) (A) (A) (A) (A) (A) (A) (A) (A) (A)
                 (A) (A) (A) (A) (A) (A) (A) (A) (A) (A) (A) (A)
                 (A) (A) (A) (A) (A) (A) (A) (A) (A) (A) (A) (A)
                 (A) (A) (A) (A) (A) (A) (A) (A) (A) (A) (A) (A)
                 (A) (A) (A) (A) (A) (A) (A) (A) (A) (A) (A) (A)
                 (A) (A) (A) (A) (A) (A) (A) (A) (A) (A) (A) (A)
                 (A) (A) (A) (A) (A) (A) (A) (A) (A) (A) (A) (A)
                 (A) (A) (A) (A) (A) (A) (A) (A) (A) (A) (A) (A)
                 (A) (A) (A) (A) (A) (A) (A) (A) (A) (A) (A) (A)
                 (A) (A) (A) (A) (A) (A) (A) (A) (A) (A) (A) (A)
                 (A) (A) (A) (A) (A) (A) (A) (A) (A) (A) (A) (A)
                 (A) (A) (A) (A)
 PCM Corrected Linear-Response:
 Compute the excitation energies in the ground state reaction field.
    24 initial guesses have been made.
 Convergence on wavefunction:    0.000001000000000
 Davidson Disk Diagonalization:  ConvIn= 1.00D-06 SkipCon=T Conv= 1.00D-06.
 Max sub-space:  2000 roots to seek:    24 dimension of matrix:        23104
 Iteration     1 Dimension    24 NMult     0 NNew     24
 CISAX will form    24 AO SS matrices at one time.
 NMat=    24 NSing=    24 JSym2X= 0.
 FoFJK:  IHMeth= 1 ICntrl=       0 DoSepK=T KAlg= 0 I1Cent=           0 FoldK=F
 IRaf=         1 NMat=      48 IRICut=       1 DoRegI=T DoRafI=F ISym2E= 0 IDoP0=3 IntGTp=3.
 New state      2 was old state      3
 New state      3 was old state      4
 New state      4 was old state      2
 New state      5 was old state      6
 New state      6 was old state      5
 Excitation Energies [eV] at current iteration:
 Root      1 :     4.099067791739902
 Root      2 :     4.369185720842684
 Root      3 :     4.542537908477338
 Root      4 :     5.603923355787590
 Root      5 :     6.255292952354469
 Root      6 :     6.603116481230504
 Root      7 :     6.782459115692531
 Root      8 :     6.859914596996320
 Root      9 :     7.036928883751925
 Root     10 :     7.114375840578797
 Root     11 :     7.299197115611112
 Root     12 :     7.488328505793059
 Root     13 :     7.637843838150969
 Root     14 :     7.705139726917015
 Root     15 :     7.790825188055956
 Root     16 :     8.100190378416153
 Root     17 :     8.147433135786823
 Root     18 :     8.275961876788665
 Root     19 :     8.327965527947837
 Root     20 :     8.603847272999760
 Root     21 :     8.738281841020306
 Root     22 :     9.056951551260230
 Root     23 :     9.127690287848873
 Root     24 :     9.194916072187638
 Iteration     2 Dimension    36 NMult    24 NNew     12
 CISAX will form    12 AO SS matrices at one time.
 NMat=    12 NSing=    12 JSym2X= 0.
 Root      1 not converged, maximum delta is    0.082099078904798
 Root      2 not converged, maximum delta is    0.083187054596828
 Root      3 not converged, maximum delta is    0.090493000240377
 Root      4 not converged, maximum delta is    0.218434798200732
 New state      5 was old state      6
 Root      5 not converged, maximum delta is    0.230782215154208
 New state      6 was old state      5
 Root      6 not converged, maximum delta is    0.137744498462262
 Excitation Energies [eV] at current iteration:
 Root      1 :     3.650873435318915   Change is   -0.448194356420987
 Root      2 :     4.119398515400768   Change is   -0.249787205441916
 Root      3 :     4.263355285837771   Change is   -0.279182622639567
 Root      4 :     5.281636603139093   Change is   -0.322286752648497
 Root      5 :     5.775776595626994   Change is   -0.827339885603510
 Root      6 :     6.125028330841200   Change is   -0.130264621513269
 Iteration     3 Dimension    48 NMult    36 NNew     12
 CISAX will form    12 AO SS matrices at one time.
 NMat=    12 NSing=    12 JSym2X= 0.
 Root      1 not converged, maximum delta is    0.010473574980673
 Root      2 not converged, maximum delta is    0.012883123719843
 Root      3 not converged, maximum delta is    0.013698553896496
 Root      4 not converged, maximum delta is    0.025280655486890
 Root      5 not converged, maximum delta is    0.026026219567694
 Root      6 not converged, maximum delta is    0.018815163742893
 Excitation Energies [eV] at current iteration:
 Root      1 :     3.630754584208872   Change is   -0.020118851110043
 Root      2 :     4.105390169647882   Change is   -0.014008345752886
 Root      3 :     4.248659861346484   Change is   -0.014695424491287
 Root      4 :     5.258977183362995   Change is   -0.022659419776098
 Root      5 :     5.734665237946447   Change is   -0.041111357680547
 Root      6 :     6.114023839820017   Change is   -0.011004491021184
 Iteration     4 Dimension    60 NMult    48 NNew     12
 CISAX will form    12 AO SS matrices at one time.
 NMat=    12 NSing=    12 JSym2X= 0.
 Root      1 not converged, maximum delta is    0.002401031314686
 Root      2 not converged, maximum delta is    0.001876383358922
 Root      3 not converged, maximum delta is    0.002113443611287
 Root      4 not converged, maximum delta is    0.002285003471057
 Root      5 not converged, maximum delta is    0.005010664529445
 Root      6 not converged, maximum delta is    0.003651684273224
 Excitation Energies [eV] at current iteration:
 Root      1 :     3.629044403710110   Change is   -0.001710180498762
 Root      2 :     4.104565997425879   Change is   -0.000824172222004
 Root      3 :     4.247822097945341   Change is   -0.000837763401143
 Root      4 :     5.257055254688827   Change is   -0.001921928674169
 Root      5 :     5.730843315256911   Change is   -0.003821922689536
 Root      6 :     6.113189801514070   Change is   -0.000834038305946
 Iteration     5 Dimension    72 NMult    60 NNew     12
 CISAX will form    12 AO SS matrices at one time.
 NMat=    12 NSing=    12 JSym2X= 0.
 Root      1 not converged, maximum delta is    0.000718832995069
 Root      2 not converged, maximum delta is    0.000285475951465
 Root      3 not converged, maximum delta is    0.000534780736643
 Root      4 not converged, maximum delta is    0.001176377744458
 Root      5 not converged, maximum delta is    0.001176102668889
 Root      6 not converged, maximum delta is    0.001065289367218
 Excitation Energies [eV] at current iteration:
 Root      1 :     3.628935930091393   Change is   -0.000108473618718
 Root      2 :     4.104518450557025   Change is   -0.000047546868854
 Root      3 :     4.247770123120489   Change is   -0.000051974824851
 Root      4 :     5.256901687786235   Change is   -0.000153566902591
 Root      5 :     5.730494203625552   Change is   -0.000349111631360
 Root      6 :     6.113115112946434   Change is   -0.000074688567636
 Iteration     6 Dimension    84 NMult    72 NNew     12
 CISAX will form    12 AO SS matrices at one time.
 NMat=    12 NSing=    12 JSym2X= 0.
 Root      1 not converged, maximum delta is    0.000196041879018
 Root      2 not converged, maximum delta is    0.000080817991683
 Root      3 not converged, maximum delta is    0.000137751388384
 Root      4 not converged, maximum delta is    0.000616751225692
 Root      5 not converged, maximum delta is    0.000338013929016
 Root      6 not converged, maximum delta is    0.000250094970781
 Excitation Energies [eV] at current iteration:
 Root      1 :     3.628928760814505   Change is   -0.000007169276887
 Root      2 :     4.104515141457721   Change is   -0.000003309099304
 Root      3 :     4.247766897504246   Change is   -0.000003225616243
 Root      4 :     5.256886951190942   Change is   -0.000014736595294
 Root      5 :     5.730467151751981   Change is   -0.000027051873571
 Root      6 :     6.113108794917365   Change is   -0.000006318029069
 Iteration     7 Dimension    96 NMult    84 NNew     12
 CISAX will form    12 AO SS matrices at one time.
 NMat=    12 NSing=    12 JSym2X= 0.
 Root      1 not converged, maximum delta is    0.000021391621860
 Root      2 not converged, maximum delta is    0.000013702055562
 Root      3 not converged, maximum delta is    0.000033364381600
 Root      4 not converged, maximum delta is    0.000180270518651
 Root      5 not converged, maximum delta is    0.000135232097886
 Root      6 not converged, maximum delta is    0.000129678192097
 Excitation Energies [eV] at current iteration:
 Root      1 :     3.628928398547192   Change is   -0.000000362267313
 Root      2 :     4.104514978958083   Change is   -0.000000162499638
 Root      3 :     4.247766709201698   Change is   -0.000000188302549
 Root      4 :     5.256885464669640   Change is   -0.000001486521301
 Root      5 :     5.730464853281015   Change is   -0.000002298470966
 Root      6 :     6.113108132303919   Change is   -0.000000662613446
 Iteration     8 Dimension   108 NMult    96 NNew     12
 CISAX will form    12 AO SS matrices at one time.
 NMat=    12 NSing=    12 JSym2X= 0.
 Root      1 not converged, maximum delta is    0.000003921639332
 Root      2 not converged, maximum delta is    0.000003472405274
 Root      3 not converged, maximum delta is    0.000003978435359
 Root      4 not converged, maximum delta is    0.000030175574528
 Root      5 not converged, maximum delta is    0.000023729099203
 Root      6 not converged, maximum delta is    0.000034510138437
 Excitation Energies [eV] at current iteration:
 Root      1 :     3.628928385845574   Change is   -0.000000012701618
 Root      2 :     4.104514968056539   Change is   -0.000000010901544
 Root      3 :     4.247766699438980   Change is   -0.000000009762717
 Root      4 :     5.256885347367263   Change is   -0.000000117302377
 Root      5 :     5.730464693061950   Change is   -0.000000160219065
 Root      6 :     6.113108068998488   Change is   -0.000000063305431
 Iteration     9 Dimension   120 NMult   108 NNew     12
 CISAX will form    12 AO SS matrices at one time.
 NMat=    12 NSing=    12 JSym2X= 0.
 Root      1 has converged.
 Root      2 has converged.
 Root      3 has converged.
 Root      4 not converged, maximum delta is    0.000003238666789
 Root      5 not converged, maximum delta is    0.000002960728228
 Root      6 not converged, maximum delta is    0.000004975284296
 Excitation Energies [eV] at current iteration:
 Root      1 :     3.628928385366365   Change is   -0.000000000479210
 Root      2 :     4.104514967646154   Change is   -0.000000000410385
 Root      3 :     4.247766699081760   Change is   -0.000000000357220
 Root      4 :     5.256885342329413   Change is   -0.000000005037850
 Root      5 :     5.730464685480751   Change is   -0.000000007581199
 Root      6 :     6.113108064874643   Change is   -0.000000004123845
 Iteration    10 Dimension   126 NMult   120 NNew      6
 CISAX will form     6 AO SS matrices at one time.
 NMat=     6 NSing=     6 JSym2X= 0.
 Root      1 has converged.
 Root      2 has converged.
 Root      3 has converged.
 Root      4 has converged.
 Root      5 has converged.
 Root      6 not converged, maximum delta is    0.000001168845113
 Excitation Energies [eV] at current iteration:
 Root      1 :     3.628928385361630   Change is   -0.000000000004734
 Root      2 :     4.104514967643150   Change is   -0.000000000003004
 Root      3 :     4.247766699077464   Change is   -0.000000000004296
 Root      4 :     5.256885342095061   Change is   -0.000000000234352
 Root      5 :     5.730464685072358   Change is   -0.000000000408394
 Root      6 :     6.113108064625685   Change is   -0.000000000248958
 Iteration    11 Dimension   128 NMult   126 NNew      2
 CISAX will form     2 AO SS matrices at one time.
 NMat=     2 NSing=     2 JSym2X= 0.
 Root      1 has converged.
 Root      2 has converged.
 Root      3 has converged.
 Root      4 has converged.
 Root      5 has converged.
 Root      6 has converged.
 Excitation Energies [eV] at current iteration:
 Root      1 :     3.628928385361562   Change is   -0.000000000000068
 Root      2 :     4.104514967643070   Change is   -0.000000000000080
 Root      3 :     4.247766699077367   Change is   -0.000000000000097
 Root      4 :     5.256885342093638   Change is   -0.000000000001423
 Root      5 :     5.730464685071598   Change is   -0.000000000000760
 Root      6 :     6.113108064608284   Change is   -0.000000000017401
 Convergence achieved on expansion vectors.
 PCM Corrected Linear-Response:
 The state of interest is root number   1
 Excitation energy =    3.6289 eV, Total energy =  -633.195592102    
 Recompute the excitation energies using the linear response reaction field.
 Convergence on wavefunction:    0.000001000000000
 Davidson Disk Diagonalization:  ConvIn= 1.00D-06 SkipCon=T Conv= 1.00D-06.
 Max sub-space:  2000 roots to seek:     6 dimension of matrix:        23104
 Iteration     1 Dimension     6 NMult     0 NNew      6
 CISAX will form     6 AO SS matrices at one time.
 NMat=     6 NSing=     6 JSym2X= 0.
 Excitation Energies [eV] at current iteration:
 Root      1 :     3.768384885451840
 Root      2 :     4.137537597454926
 Root      3 :     4.278299603775996
 Root      4 :     5.364036992246209
 Root      5 :     5.973903694651439
 Root      6 :     6.117415448096377
 Iteration     2 Dimension    18 NMult     6 NNew     12
 CISAX will form    12 AO SS matrices at one time.
 NMat=    12 NSing=    12 JSym2X= 0.
 Root      1 not converged, maximum delta is    0.031738527224343
 Root      2 not converged, maximum delta is    0.042249724456789
 Root      3 not converged, maximum delta is    0.005912695364858
 Root      4 not converged, maximum delta is    0.171209272772983
 Root      5 not converged, maximum delta is    0.204455858534418
 Root      6 not converged, maximum delta is    0.125148555978050
 Excitation Energies [eV] at current iteration:
 Root      1 :     3.576107734772701   Change is   -0.192277150679139
 Root      2 :     4.101825913033121   Change is   -0.035711684421805
 Root      3 :     4.245458479943407   Change is   -0.032841123832589
 Root      4 :     5.208832197019366   Change is   -0.155204795226842
 Root      5 :     5.670867832475460   Change is   -0.303035862175980
 Root      6 :     6.095534884650126   Change is   -0.021880563446251
 Iteration     3 Dimension    30 NMult    18 NNew     12
 CISAX will form    12 AO SS matrices at one time.
 NMat=    12 NSing=    12 JSym2X= 0.
 Root      1 not converged, maximum delta is    0.002045007855409
 Root      2 not converged, maximum delta is    0.000359138382000
 Root      3 not converged, maximum delta is    0.000395060749087
 Root      4 not converged, maximum delta is    0.007061440336618
 Root      5 not converged, maximum delta is    0.005539150188805
 Root      6 not converged, maximum delta is    0.004738806817927
 Excitation Energies [eV] at current iteration:
 Root      1 :     3.574101050602783   Change is   -0.002006684169918
 Root      2 :     4.101642060227703   Change is   -0.000183852805418
 Root      3 :     4.245296964075338   Change is   -0.000161515868070
 Root      4 :     5.204875411480857   Change is   -0.003956785538510
 Root      5 :     5.665570398765868   Change is   -0.005297433709591
 Root      6 :     6.094942417169661   Change is   -0.000592467480465
 Iteration     4 Dimension    42 NMult    30 NNew     12
 CISAX will form    12 AO SS matrices at one time.
 NMat=    12 NSing=    12 JSym2X= 0.
 Root      1 not converged, maximum delta is    0.001390935988331
 Root      2 not converged, maximum delta is    0.000234798899471
 Root      3 not converged, maximum delta is    0.000186067107081
 Root      4 not converged, maximum delta is    0.000670852761671
 Root      5 not converged, maximum delta is    0.001053653146931
 Root      6 not converged, maximum delta is    0.004152325556630
 Excitation Energies [eV] at current iteration:
 Root      1 :     3.573939080181185   Change is   -0.000161970421598
 Root      2 :     4.101632299081838   Change is   -0.000009761145865
 Root      3 :     4.245290153700983   Change is   -0.000006810374354
 Root      4 :     5.204632523992258   Change is   -0.000242887488598
 Root      5 :     5.665242756524373   Change is   -0.000327642241495
 Root      6 :     6.094810916279384   Change is   -0.000131500890278
 Iteration     5 Dimension    54 NMult    42 NNew     12
 CISAX will form    12 AO SS matrices at one time.
 NMat=    12 NSing=    12 JSym2X= 0.
 Root      1 not converged, maximum delta is    0.000704424287730
 Root      2 not converged, maximum delta is    0.000132131573164
 Root      3 not converged, maximum delta is    0.000043391692608
 Root      4 not converged, maximum delta is    0.000329648361073
 Root      5 not converged, maximum delta is    0.000465549744516
 Root      6 not converged, maximum delta is    0.002359531642731
 Excitation Energies [eV] at current iteration:
 Root      1 :     3.573922283140278   Change is   -0.000016797040908
 Root      2 :     4.101631544961422   Change is   -0.000000754120416
 Root      3 :     4.245289682884954   Change is   -0.000000470816029
 Root      4 :     5.204606462415988   Change is   -0.000026061576270
 Root      5 :     5.665206725859454   Change is   -0.000036030664919
 Root      6 :     6.094778368472722   Change is   -0.000032547806662
 Iteration     6 Dimension    66 NMult    54 NNew     12
 CISAX will form    12 AO SS matrices at one time.
 NMat=    12 NSing=    12 JSym2X= 0.
 Root      1 not converged, maximum delta is    0.000089827826139
 Root      2 not converged, maximum delta is    0.000020793380322
 Root      3 not converged, maximum delta is    0.000013845968133
 Root      4 not converged, maximum delta is    0.000211022361301
 Root      5 not converged, maximum delta is    0.000335220297130
 Root      6 not converged, maximum delta is    0.000717211304019
 Excitation Energies [eV] at current iteration:
 Root      1 :     3.573920949629059   Change is   -0.000001333511219
 Root      2 :     4.101631475261565   Change is   -0.000000069699857
 Root      3 :     4.245289636671855   Change is   -0.000000046213099
 Root      4 :     5.204603417845443   Change is   -0.000003044570544
 Root      5 :     5.665200629473723   Change is   -0.000006096385730
 Root      6 :     6.094773344097189   Change is   -0.000005024375533
 Iteration     7 Dimension    78 NMult    66 NNew     12
 CISAX will form    12 AO SS matrices at one time.
 NMat=    12 NSing=    12 JSym2X= 0.
 Root      1 not converged, maximum delta is    0.000010220414790
 Root      2 not converged, maximum delta is    0.000002000098547
 Root      3 not converged, maximum delta is    0.000004899637177
 Root      4 not converged, maximum delta is    0.000068051748255
 Root      5 not converged, maximum delta is    0.000112868447512
 Root      6 not converged, maximum delta is    0.000104677822728
 Excitation Energies [eV] at current iteration:
 Root      1 :     3.573920899243109   Change is   -0.000000050385950
 Root      2 :     4.101631471853995   Change is   -0.000000003407569
 Root      3 :     4.245289633317010   Change is   -0.000000003354845
 Root      4 :     5.204603123985492   Change is   -0.000000293859952
 Root      5 :     5.665199956741804   Change is   -0.000000672731919
 Root      6 :     6.094772826882801   Change is   -0.000000517214388
 Iteration     8 Dimension    90 NMult    78 NNew     12
 CISAX will form    12 AO SS matrices at one time.
 NMat=    12 NSing=    12 JSym2X= 0.
 Root      1 not converged, maximum delta is    0.000003596085013
 Root      2 not converged, maximum delta is    0.000001020652818
 Root      3 has converged.
 Root      4 not converged, maximum delta is    0.000012502294906
 Root      5 not converged, maximum delta is    0.000031137754503
 Root      6 not converged, maximum delta is    0.000030881971610
 Excitation Energies [eV] at current iteration:
 Root      1 :     3.573920895911262   Change is   -0.000000003331847
 Root      2 :     4.101631471651524   Change is   -0.000000000202471
 Root      3 :     4.245289633179445   Change is   -0.000000000137565
 Root      4 :     5.204603098903211   Change is   -0.000000025082281
 Root      5 :     5.665199896513363   Change is   -0.000000060228441
 Root      6 :     6.094772752887344   Change is   -0.000000073995457
 Iteration     9 Dimension   100 NMult    90 NNew     10
 CISAX will form    10 AO SS matrices at one time.
 NMat=    10 NSing=    10 JSym2X= 0.
 Root      1 has converged.
 Root      2 has converged.
 Root      3 has converged.
 Root      4 not converged, maximum delta is    0.000002997352982
 Root      5 not converged, maximum delta is    0.000009698985656
 Root      6 not converged, maximum delta is    0.000012045287539
 Excitation Energies [eV] at current iteration:
 Root      1 :     3.573920895767315   Change is   -0.000000000143947
 Root      2 :     4.101631471640080   Change is   -0.000000000011445
 Root      3 :     4.245289633177780   Change is   -0.000000000001665
 Root      4 :     5.204603097330597   Change is   -0.000000001572613
 Root      5 :     5.665199891076830   Change is   -0.000000005436533
 Root      6 :     6.094772744627170   Change is   -0.000000008260174
 Iteration    10 Dimension   106 NMult   100 NNew      6
 CISAX will form     6 AO SS matrices at one time.
 NMat=     6 NSing=     6 JSym2X= 0.
 Root      1 has converged.
 Root      2 has converged.
 Root      3 has converged.
 Root      4 has converged.
 Root      5 not converged, maximum delta is    0.000002271282344
 Root      6 not converged, maximum delta is    0.000002690469182
 Excitation Energies [eV] at current iteration:
 Root      1 :     3.573920895766924   Change is   -0.000000000000391
 Root      2 :     4.101631471639960   Change is   -0.000000000000120
 Root      3 :     4.245289633177586   Change is   -0.000000000000193
 Root      4 :     5.204603097228830   Change is   -0.000000000101768
 Root      5 :     5.665199890631590   Change is   -0.000000000445240
 Root      6 :     6.094772743767230   Change is   -0.000000000859940
 Iteration    11 Dimension   110 NMult   106 NNew      4
 CISAX will form     4 AO SS matrices at one time.
 NMat=     4 NSing=     4 JSym2X= 0.
 Root      1 has converged.
 Root      2 has converged.
 Root      3 has converged.
 Root      4 has converged.
 Root      5 has converged.
 Root      6 has converged.
 Excitation Energies [eV] at current iteration:
 Root      1 :     3.573920895766809   Change is   -0.000000000000115
 Root      2 :     4.101631471639960   Change is    0.000000000000000
 Root      3 :     4.245289633177393   Change is   -0.000000000000193
 Root      4 :     5.204603097225497   Change is   -0.000000000003333
 Root      5 :     5.665199890600044   Change is   -0.000000000031547
 Root      6 :     6.094772743661186   Change is   -0.000000000106044
 Convergence achieved on expansion vectors.
 ***********************************************************************
 Excited states from <AA,BB:AA,BB> singles matrix:
 ***********************************************************************
 
 1PDM for each excited state written to RWF  633
 Ground to excited state transition densities written to RWF  633
 Ground to excited state transition electric dipole moments (Au):
       state          X           Y           Z        Dip. S.      Osc.
         1        -1.4614      0.1545      0.0388      2.1610      0.1892
         2        -0.1901     -0.0027      0.0448      0.0382      0.0038
         3        -0.0016      0.1173     -0.0358      0.0150      0.0016
         4        -0.1611     -1.3461      0.1292      1.8545      0.2365
         5        -0.0678     -1.4652      0.0550      2.1545      0.2990
         6         0.0305      0.2137      0.0863      0.0541      0.0081
 Ground to excited state transition velocity dipole moments (Au):
       state          X           Y           Z        Dip. S.      Osc.
         1         0.1841     -0.0156     -0.0061      0.0342      0.1735
         2         0.0276      0.0007     -0.0040      0.0008      0.0034
         3         0.0005     -0.0171      0.0021      0.0003      0.0013
         4         0.0327      0.2453     -0.0196      0.0616      0.2147
         5         0.0147      0.2987     -0.0116      0.0896      0.2869
         6        -0.0073     -0.0443     -0.0380      0.0035      0.0103
 Ground to excited state transition magnetic dipole moments (Au):
       state          X           Y           Z
         1        -0.1118      0.0156     -1.4155
         2         0.8018     -0.1502     -0.4246
         3         0.1511     -1.0007     -0.1707
         4         0.0511     -0.0858      0.0341
         5         0.2237     -0.1110      0.2772
         6        -0.0775     -0.0017     -0.0000
 Ground to excited state transition velocity quadrupole moments (Au):
       state          XX          YY          ZZ          XY          XZ          YZ
         1        -0.1463      0.0871     -0.0001     -0.5288      0.0651      0.0086
         2        -0.0019     -0.0043      0.0032     -0.0756      0.0237      0.0804
         3         0.0039     -0.0072      0.0288     -0.0419      0.0613      0.0058
         4        -1.1065      0.2515     -0.0151      0.0412      0.0756     -0.0578
         5        -0.7006      0.2827      0.0536      0.1922      0.0769      0.0358
         6        -0.1762     -0.1964      0.1848      0.0104      0.0284      0.0032
 <0|del|b> * <b|rxdel|0> + <0|del|b> * <b|delr+rdel|0>
 Rotatory Strengths (R) in cgs (10**-40 erg-esu-cm/Gauss)
       state          XX          YY          ZZ    R(velocity)    E-M Angle
         1        33.8925    -36.6435    -63.0808    -21.9440       92.67
         2         4.4559     60.3484     46.4509     37.0850       22.29
         3        40.2148     -0.4420     36.6356     25.4695       17.98
         4       -75.8917     -0.1435      1.9340    -24.7004      139.91
         5      -104.6173      4.7850    -12.6427    -37.4917      107.25
         6         1.4827      1.4865     -0.9285      0.6802       81.85
 1/2[<0|r|b>*<b|rxdel|0> + (<0|rxdel|b>*<b|r|0>)*]
 Rotatory Strengths (R) in cgs (10**-40 erg-esu-cm/Gauss)
       state          XX          YY          ZZ     R(length)
         1      -115.5516     -1.7081     38.8861    -26.1245
         2       107.8081     -0.2887     13.4378     40.3191
         3         0.1699     83.0026     -4.3168     26.2852
         4         5.8242    -81.6769     -3.1152    -26.3227
         5        10.7215   -115.0544    -10.7866    -38.3732
         6         1.6723      0.2600      0.0016      0.6446
  1/2[<0|del|b>*<b|r|0> + (<0|r|b>*<b|del|0>)*] (Au)
       state          X           Y           Z        Dip. S.   Osc.(frdel)
         1        -0.2690     -0.0024     -0.0002      0.2717      0.1811
         2        -0.0052     -0.0000     -0.0002      0.0054      0.0036
         3        -0.0000     -0.0020     -0.0001      0.0021      0.0014
         4        -0.0053     -0.3301     -0.0025      0.3379      0.2253
         5        -0.0010     -0.4377     -0.0006      0.4393      0.2929
         6        -0.0002     -0.0095     -0.0033      0.0130      0.0086

 Excitation energies and oscillator strengths:
 
 Excited State   1:      Singlet-A      3.5739 eV  346.91 nm  f=0.1892  <S**2>=0.000
      52 -> 53         0.69712
 This state for optimization and/or second-order correction.
 Total Energy, E(TD-HF/TD-DFT) =  -633.197613590    
 Copying the excited state density for this state as the 1-particle RhoCI density.
 
 Excited State   2:      Singlet-A      4.1016 eV  302.28 nm  f=0.0038  <S**2>=0.000
      50 -> 54         0.19507
      51 -> 53         0.55593
      51 -> 54         0.33352
 
 Excited State   3:      Singlet-A      4.2453 eV  292.05 nm  f=0.0016  <S**2>=0.000
      49 -> 53         0.20470
      49 -> 54        -0.14437
      50 -> 53         0.53159
      50 -> 54        -0.26731
      50 -> 58         0.11159
      51 -> 54         0.21055
 
 Excited State   4:      Singlet-A      5.2046 eV  238.22 nm  f=0.2365  <S**2>=0.000
      52 -> 54         0.69686
 
 Excited State   5:      Singlet-A      5.6652 eV  218.85 nm  f=0.2990  <S**2>=0.000
      49 -> 53         0.62878
      50 -> 53        -0.23092
      51 -> 53         0.15561
 
 Excited State   6:      Singlet-A      6.0948 eV  203.43 nm  f=0.0081  <S**2>=0.000
      52 -> 55         0.66525
      52 -> 56         0.12008
 SavETr:  write IOETrn=   770 NScale= 10 NData=  16 NLR=1 NState=    6 LETran=     118.
 The selected state is a singlet.
 CISGrd: IGrad=1 NXY=2 DFT=T
 CISAX will form     1 AO SS matrices at one time.
 NMat=     1 NSing=     1 JSym2X= 0.
 Leave Link  914 at Tue Jan 20 18:34:08 2026, MaxMem=  2147483648 cpu:           15467.1 elap:             487.1
 (Enter /data/home/wyx/g16/l1002.exe)
 Minotr:  Closed shell wavefunction.
          Computing CIS/TDA/TD derivatives.
          Using Z-Vector for PSCF gradient.
          Skipping F1 and S1 gradient terms here.
 NEqPCM:  Using equilibrium solvation (IEInf=0, Eps=   7.4257, EpsInf=   1.9740)
          Frozen-core window.
          Direct CPHF calculation.
          Differentiating once with respect to electric field.
                with respect to dipole field.
          Electric field/nuclear overlap derivatives assumed to be zero.
          Requested convergence is 1.0D-10 RMS, and 1.0D-09 maximum.
          NewPWx=F KeepS1=T KeepF1=T KeepIn=T MapXYZ=F SortEE=F KeepMc=T.
 Two-electron integral symmetry used by symmetrizing perturbed Fock matrices.
          MDV=    2147483648 using IRadAn=       5.
          Solving linear equations separately, MaxMat=     384.
          There are     1 degrees of freedom in the 1st order CPHF.  IDoFFX=0 NUNeed=     1.
 FoFJK:  IHMeth= 1 ICntrl=       0 DoSepK=T KAlg= 0 I1Cent=           0 FoldK=F
 IRaf=         1 NMat=       1 IRICut=       1 DoRegI=T DoRafI=F ISym2E=-1 IDoP0=0 IntGTp=1.
 FoFCou: FMM=F IPFlag=           0 FMFlag=      100000 FMFlg1=           0
         NFxFlg=           0 DoJE=T BraDBF=F KetDBF=F FulRan=T
         wScrn=  0.000000 ICntrl=       500 IOpCl=  0 I1Cent=           0 NGrid=           0
         NMat0=    1 NMatS0=      1 NMatT0=    0 NMatD0=    1 NMtDS0=    0 NMtDT0=    0
 Petite list used in FoFCou.
 LinEq1:  Iter=  0 NonCon=     1 RMS=3.71D-03 Max=2.00D-01 NDo=     1
 AX will form     1 AO Fock derivatives at one time.
 LinEq1:  Iter=  1 NonCon=     1 RMS=1.62D-03 Max=9.38D-02 NDo=     1
 LinEq1:  Iter=  2 NonCon=     1 RMS=7.54D-04 Max=4.24D-02 NDo=     1
 LinEq1:  Iter=  3 NonCon=     1 RMS=4.00D-04 Max=1.78D-02 NDo=     1
 LinEq1:  Iter=  4 NonCon=     1 RMS=1.89D-04 Max=5.95D-03 NDo=     1
 LinEq1:  Iter=  5 NonCon=     1 RMS=1.03D-04 Max=3.76D-03 NDo=     1
 LinEq1:  Iter=  6 NonCon=     1 RMS=6.19D-05 Max=2.18D-03 NDo=     1
 LinEq1:  Iter=  7 NonCon=     1 RMS=2.52D-05 Max=1.44D-03 NDo=     1
 LinEq1:  Iter=  8 NonCon=     1 RMS=1.13D-05 Max=4.91D-04 NDo=     1
 LinEq1:  Iter=  9 NonCon=     1 RMS=5.40D-06 Max=2.43D-04 NDo=     1
 LinEq1:  Iter= 10 NonCon=     1 RMS=2.30D-06 Max=5.73D-05 NDo=     1
 LinEq1:  Iter= 11 NonCon=     1 RMS=1.38D-06 Max=5.42D-05 NDo=     1
 LinEq1:  Iter= 12 NonCon=     1 RMS=7.66D-07 Max=1.53D-05 NDo=     1
 LinEq1:  Iter= 13 NonCon=     1 RMS=3.16D-07 Max=7.42D-06 NDo=     1
 LinEq1:  Iter= 14 NonCon=     1 RMS=1.30D-07 Max=3.52D-06 NDo=     1
 LinEq1:  Iter= 15 NonCon=     1 RMS=7.18D-08 Max=1.54D-06 NDo=     1
 LinEq1:  Iter= 16 NonCon=     1 RMS=2.50D-08 Max=6.24D-07 NDo=     1
 LinEq1:  Iter= 17 NonCon=     1 RMS=7.76D-09 Max=2.42D-07 NDo=     1
 LinEq1:  Iter= 18 NonCon=     1 RMS=3.80D-09 Max=1.34D-07 NDo=     1
 LinEq1:  Iter= 19 NonCon=     1 RMS=1.67D-09 Max=7.54D-08 NDo=     1
 LinEq1:  Iter= 20 NonCon=     1 RMS=5.03D-10 Max=1.55D-08 NDo=     1
 LinEq1:  Iter= 21 NonCon=     1 RMS=2.18D-10 Max=4.71D-09 NDo=     1
 LinEq1:  Iter= 22 NonCon=     1 RMS=8.33D-11 Max=2.11D-09 NDo=     1
 LinEq1:  Iter= 23 NonCon=     0 RMS=2.06D-11 Max=6.40D-10 NDo=     1
 Linear equations converged to 1.000D-10 1.000D-09 after    23 iterations.
 PCM Corrected Linear-Response - Non-equilibrium solvation:
 Corrected transition energy               =    3.6193          eV
 Total energy after correction             = -633.195945031     a.u.
 End of Minotr F.D. properties file   721 does not exist.
 End of Minotr F.D. properties file   722 does not exist.
 End of Minotr F.D. properties file   788 does not exist.
 Leave Link 1002 at Tue Jan 20 18:36:09 2026, MaxMem=  2147483648 cpu:            2785.9 elap:             119.7
 (Enter /data/home/wyx/g16/l601.exe)
 Copying SCF densities to generalized density rwf, IOpCl= 0 IROHF=0.

 **********************************************************************

            Population analysis using the CI density.

 **********************************************************************

 Orbital symmetries:
       Occupied  (A) (A) (A) (A) (A) (A) (A) (A) (A) (A) (A) (A)
                 (A) (A) (A) (A) (A) (A) (A) (A) (A) (A) (A) (A)
                 (A) (A) (A) (A) (A) (A) (A) (A) (A) (A) (A) (A)
                 (A) (A) (A) (A) (A) (A) (A) (A) (A) (A) (A) (A)
                 (A) (A) (A) (A)
       Virtual   (A) (A) (A) (A) (A) (A) (A) (A) (A) (A) (A) (A)
                 (A) (A) (A) (A) (A) (A) (A) (A) (A) (A) (A) (A)
                 (A) (A) (A) (A) (A) (A) (A) (A) (A) (A) (A) (A)
                 (A) (A) (A) (A) (A) (A) (A) (A) (A) (A) (A) (A)
                 (A) (A) (A) (A) (A) (A) (A) (A) (A) (A) (A) (A)
                 (A) (A) (A) (A) (A) (A) (A) (A) (A) (A) (A) (A)
                 (A) (A) (A) (A) (A) (A) (A) (A) (A) (A) (A) (A)
                 (A) (A) (A) (A) (A) (A) (A) (A) (A) (A) (A) (A)
                 (A) (A) (A) (A) (A) (A) (A) (A) (A) (A) (A) (A)
                 (A) (A) (A) (A) (A) (A) (A) (A) (A) (A) (A) (A)
                 (A) (A) (A) (A) (A) (A) (A) (A) (A) (A) (A) (A)
                 (A) (A) (A) (A) (A) (A) (A) (A) (A) (A) (A) (A)
                 (A) (A) (A) (A) (A) (A) (A) (A) (A) (A) (A) (A)
                 (A) (A) (A) (A) (A) (A) (A) (A) (A) (A) (A) (A)
                 (A) (A) (A) (A) (A) (A) (A) (A) (A) (A) (A) (A)
                 (A) (A) (A) (A) (A) (A) (A) (A) (A) (A) (A) (A)
                 (A) (A) (A) (A) (A) (A) (A) (A) (A) (A) (A) (A)
                 (A) (A) (A) (A) (A) (A) (A) (A) (A) (A) (A) (A)
                 (A) (A) (A) (A) (A) (A) (A) (A) (A) (A) (A) (A)
                 (A) (A) (A) (A) (A) (A) (A) (A) (A) (A) (A) (A)
                 (A) (A) (A) (A) (A) (A) (A) (A) (A) (A) (A) (A)
                 (A) (A) (A) (A) (A) (A) (A) (A) (A) (A) (A) (A)
                 (A) (A) (A) (A) (A) (A) (A) (A) (A) (A) (A) (A)
                 (A) (A) (A) (A) (A) (A) (A) (A) (A) (A) (A) (A)
                 (A) (A) (A) (A) (A) (A) (A) (A) (A) (A) (A) (A)
                 (A) (A) (A) (A)
 The electronic state is 1-A.
 Alpha  occ. eigenvalues --  -19.17892 -19.17407 -14.44051 -10.33474 -10.33076
 Alpha  occ. eigenvalues --  -10.31947 -10.31385 -10.25935 -10.25061 -10.24848
 Alpha  occ. eigenvalues --  -10.24821 -10.24498 -10.24292 -10.23765  -1.12110
 Alpha  occ. eigenvalues --   -1.11608  -1.07375  -0.91195  -0.90195  -0.83792
 Alpha  occ. eigenvalues --   -0.82501  -0.81570  -0.78469  -0.74010  -0.71021
 Alpha  occ. eigenvalues --   -0.68545  -0.61516  -0.58176  -0.56745  -0.55162
 Alpha  occ. eigenvalues --   -0.54516  -0.53976  -0.52573  -0.51917  -0.50747
 Alpha  occ. eigenvalues --   -0.50023  -0.49493  -0.49104  -0.48611  -0.48137
 Alpha  occ. eigenvalues --   -0.46862  -0.45352  -0.45083  -0.43382  -0.43069
 Alpha  occ. eigenvalues --   -0.42403  -0.42067  -0.42002  -0.32818  -0.32225
 Alpha  occ. eigenvalues --   -0.31226  -0.26266
 Alpha virt. eigenvalues --   -0.02136   0.02476   0.06304   0.08089   0.08539
 Alpha virt. eigenvalues --    0.10078   0.10723   0.11954   0.12625   0.13491
 Alpha virt. eigenvalues --    0.14284   0.14867   0.15619   0.16039   0.16878
 Alpha virt. eigenvalues --    0.17467   0.17817   0.17879   0.18128   0.19169
 Alpha virt. eigenvalues --    0.19883   0.22008   0.22587   0.23453   0.23573
 Alpha virt. eigenvalues --    0.23895   0.24815   0.25508   0.25897   0.26366
 Alpha virt. eigenvalues --    0.26831   0.27159   0.28738   0.29163   0.30119
 Alpha virt. eigenvalues --    0.31551   0.31938   0.32778   0.33573   0.34232
 Alpha virt. eigenvalues --    0.35436   0.35793   0.36781   0.37991   0.38984
 Alpha virt. eigenvalues --    0.40194   0.40882   0.41759   0.42281   0.42718
 Alpha virt. eigenvalues --    0.43927   0.44095   0.45399   0.45937   0.46152
 Alpha virt. eigenvalues --    0.47168   0.47653   0.47908   0.48329   0.48940
 Alpha virt. eigenvalues --    0.49407   0.50246   0.50612   0.51276   0.51624
[...]
 Alpha virt. eigenvalues --    2.00683   2.03655   2.04230   2.06113   2.09277
 Alpha virt. eigenvalues --    2.11279   2.12851   2.14250   2.16301   2.19295
 Alpha virt. eigenvalues --    2.20373   2.21069   2.21774   2.22446   2.25874
 Alpha virt. eigenvalues --    2.26762   2.27061   2.28752   2.30213   2.31039
 Alpha virt. eigenvalues --    2.32641   2.34653   2.35934   2.36056   2.37748
 Alpha virt. eigenvalues --    2.39423   2.40067   2.41456   2.43920   2.44649
 Alpha virt. eigenvalues --    2.45759   2.47627   2.49981   2.50327   2.51672
 Alpha virt. eigenvalues --    2.52989   2.53365   2.54869   2.56687   2.58580
 Alpha virt. eigenvalues --    2.58962   2.59829   2.60535   2.61224   2.62470
 Alpha virt. eigenvalues --    2.64330   2.65425   2.66883   2.67685   2.69129
 Alpha virt. eigenvalues --    2.70296   2.71923   2.72703   2.73438   2.74611
 Alpha virt. eigenvalues --    2.75912   2.76566   2.77348   2.78092   2.79335
 Alpha virt. eigenvalues --    2.80680   2.81200   2.82778   2.83500   2.84530
 Alpha virt. eigenvalues --    2.85545   2.85838   2.87489   2.90470   2.91631
 Alpha virt. eigenvalues --    2.97764   3.00066   3.01204   3.03294   3.09936
 Alpha virt. eigenvalues --    3.11926   3.15046   3.16273   3.16788   3.19974
 Alpha virt. eigenvalues --    3.20507   3.22182   3.25250   3.26623   3.27001
 Alpha virt. eigenvalues --    3.27673   3.29360   3.33262   3.34802   3.36407
 Alpha virt. eigenvalues --    3.36932   3.38628   3.39633   3.40037   3.41331
 Alpha virt. eigenvalues --    3.42574   3.44549   3.45338   3.46326   3.47854
 Alpha virt. eigenvalues --    3.48071   3.49159   3.55132   3.57967   3.59543
 Alpha virt. eigenvalues --    3.60292   3.89566   3.99068   4.34584   4.36048
 Alpha virt. eigenvalues --   21.62814  21.78900  22.08199  22.10982  22.11513
 Alpha virt. eigenvalues --   22.14155  22.15129  22.17748  22.21107  22.25051
 Alpha virt. eigenvalues --   22.30831  31.93375  43.62780  43.65127
          Condensed to atoms (all electrons):
               1          2          3          4          5          6
     1  O    7.995568  -0.000000  -0.000297   0.000019   0.020137   0.027446
     2  O   -0.000000   8.000482   0.000210   0.000042  -0.207065   0.000687
     3  N   -0.000297   0.000210   6.230748   0.369132  -0.088488   0.347722
     4  H    0.000019   0.000042   0.369132   0.401410   0.016874  -0.044134
     5  C    0.020137  -0.207065  -0.088488   0.016874   7.200194   0.025497
     6  C    0.027446   0.000687   0.347722  -0.044134   0.025497   6.103357
     7  C   -0.000720  -0.018526   0.400336  -0.039581   0.009402  -0.198225
     8  C    0.000056   0.685759   0.004672  -0.000357  -0.220824   0.026305
     9  C   -0.037145   0.016336   0.005986  -0.001109  -0.425399  -0.228345
    10  H    0.020688  -0.000167  -0.001200   0.000026  -0.079879   0.019157
    11  H    0.000888   0.000071   0.001146   0.000039  -0.018466  -0.008998
    12  C   -0.234944  -0.001495  -0.054585   0.014343   0.017255  -0.457550
    13  C    0.687516  -0.000015  -0.000151   0.000594   0.080830   0.171414
    14  C   -0.000003  -0.013587  -0.040920  -0.009152  -0.084963   0.013162
    15  H   -0.000000   0.004538   0.002487   0.001639   0.021696   0.006383
    16  H   -0.000000  -0.000963   0.001200   0.000736  -0.000307  -0.000675
    17  H    0.000000  -0.000747  -0.002134   0.000883  -0.012661  -0.001139
    18  C   -0.000145  -0.105505  -0.000681   0.000022  -0.293808  -0.000603
    19  H   -0.000001   0.010329   0.000004  -0.000001   0.026127   0.000027
    20  H    0.000103   0.003360   0.000103   0.000000   0.039821  -0.000985
    21  H   -0.000132   0.002344   0.000010  -0.000001   0.007202   0.000311
    22  C   -0.111111   0.000000   0.000293   0.000131   0.005169   0.001901
    23  H    0.001989   0.000000   0.000052  -0.000016  -0.000125   0.016365
    24  H    0.004945  -0.000000  -0.000193  -0.000057  -0.000707  -0.036405
    25  H    0.010280  -0.000000   0.000004  -0.000003  -0.000129  -0.002484
    26  C    0.000803  -0.000001  -0.039236  -0.006582  -0.001733   0.173253
    27  H   -0.000069   0.000000  -0.002119   0.000525   0.000910  -0.053578
    28  H   -0.000352  -0.000000   0.002519   0.000813  -0.000287  -0.057294
    29  H    0.000017   0.000000   0.001179   0.001111  -0.000724  -0.057291
               7          8          9         10         11         12
     1  O   -0.000720   0.000056  -0.037145   0.020688   0.000888  -0.234944
     2  O   -0.018526   0.685759   0.016336  -0.000167   0.000071  -0.001495
     3  N    0.400336   0.004672   0.005986  -0.001200   0.001146  -0.054585
     4  H   -0.039581  -0.000357  -0.001109   0.000026   0.000039   0.014343
     5  C    0.009402  -0.220824  -0.425399  -0.079879  -0.018466   0.017255
     6  C   -0.198225   0.026305  -0.228345   0.019157  -0.008998  -0.457550
     7  C    5.960109  -0.207778  -0.174734   0.016083  -0.002496   0.010255
     8  C   -0.207778   5.427519   0.091690  -0.006864  -0.000140  -0.031617
     9  C   -0.174734   0.091690   6.449250   0.489151   0.343675   0.053451
    10  H    0.016083  -0.006864   0.489151   0.456035  -0.020444  -0.106542
    11  H   -0.002496  -0.000140   0.343675  -0.020444   0.481876   0.009202
    12  C    0.010255  -0.031617   0.053451  -0.106542   0.009202   7.531889
    13  C    0.008037  -0.004895  -0.262138   0.008719  -0.001108  -0.384245
    14  C    0.263904  -0.037183   0.010921   0.000316  -0.000675  -0.004409
    15  H   -0.075976   0.006804  -0.000310   0.000000   0.000044  -0.001416
    16  H   -0.037379  -0.007257  -0.000863  -0.000051   0.000144   0.000079
    17  H   -0.038885  -0.000790   0.001244   0.000062  -0.000044   0.000273
    18  C    0.009509   0.283614  -0.008479   0.004800  -0.006175  -0.006436
    19  H    0.001423  -0.049596  -0.000809   0.000505  -0.000072  -0.000472
    20  H    0.001067  -0.060593  -0.007881  -0.003220  -0.000263   0.006457
    21  H   -0.000472  -0.038710  -0.009767  -0.002692   0.000931  -0.001067
    22  C   -0.000705  -0.000005  -0.005131   0.002195   0.000862  -0.283005
    23  H   -0.000011   0.000003  -0.003431  -0.000125   0.000051  -0.012506
    24  H    0.000097  -0.000014   0.003832  -0.000194  -0.000098   0.073308
    25  H    0.000042   0.000005   0.001730  -0.000169   0.000007   0.025478
    26  C    0.005799   0.000159   0.018495  -0.000059  -0.000453  -0.072924
    27  H    0.000231  -0.000039  -0.001868   0.000015  -0.000033  -0.018818
    28  H   -0.000499   0.000003   0.001299   0.000012   0.000021   0.000239
    29  H    0.003974   0.000017  -0.000678  -0.000001   0.000057   0.025050
              13         14         15         16         17         18
     1  O    0.687516  -0.000003  -0.000000  -0.000000   0.000000  -0.000145
     2  O   -0.000015  -0.013587   0.004538  -0.000963  -0.000747  -0.105505
     3  N   -0.000151  -0.040920   0.002487   0.001200  -0.002134  -0.000681
     4  H    0.000594  -0.009152   0.001639   0.000736   0.000883   0.000022
     5  C    0.080830  -0.084963   0.021696  -0.000307  -0.012661  -0.293808
     6  C    0.171414   0.013162   0.006383  -0.000675  -0.001139  -0.000603
     7  C    0.008037   0.263904  -0.075976  -0.037379  -0.038885   0.009509
     8  C   -0.004895  -0.037183   0.006804  -0.007257  -0.000790   0.283614
     9  C   -0.262138   0.010921  -0.000310  -0.000863   0.001244  -0.008479
    10  H    0.008719   0.000316   0.000000  -0.000051   0.000062   0.004800
    11  H   -0.001108  -0.000675   0.000044   0.000144  -0.000044  -0.006175
    12  C   -0.384245  -0.004409  -0.001416   0.000079   0.000273  -0.006436
    13  C    5.485091  -0.000087  -0.000013   0.000006  -0.000052   0.000637
    14  C   -0.000087   5.055996   0.378649   0.427084   0.423507   0.002032
    15  H   -0.000013   0.378649   0.591910  -0.027566  -0.027862   0.000380
    16  H    0.000006   0.427084  -0.027566   0.513225  -0.029859  -0.000128
    17  H   -0.000052   0.423507  -0.027862  -0.029859   0.529374  -0.000340
    18  C    0.000637   0.002032   0.000380  -0.000128  -0.000340   5.426489
    19  H   -0.000027   0.000027  -0.000008   0.000006   0.000009   0.380626
    20  H    0.000316   0.000086  -0.000023  -0.000067   0.000017   0.375612
    21  H    0.000217  -0.000399  -0.000007   0.000051  -0.000047   0.397728
    22  C    0.281854  -0.000024   0.000002  -0.000000   0.000000   0.000011
    23  H   -0.029795  -0.000001   0.000000   0.000000  -0.000000  -0.000002
    24  H   -0.092913  -0.000002   0.000000   0.000000   0.000000   0.000004
    25  H   -0.039292   0.000001   0.000000  -0.000000   0.000000   0.000001
    26  C   -0.046053   0.000919   0.000228   0.000058  -0.000198   0.000027
    27  H    0.005805  -0.000415   0.000013   0.000009  -0.000065  -0.000001
    28  H   -0.003356   0.000105  -0.000011  -0.000002   0.000007   0.000000
    29  H   -0.000310   0.000082   0.000066  -0.000010   0.000016   0.000001
              19         20         21         22         23         24
     1  O   -0.000001   0.000103  -0.000132  -0.111111   0.001989   0.004945
     2  O    0.010329   0.003360   0.002344   0.000000   0.000000  -0.000000
     3  N    0.000004   0.000103   0.000010   0.000293   0.000052  -0.000193
     4  H   -0.000001   0.000000  -0.000001   0.000131  -0.000016  -0.000057
     5  C    0.026127   0.039821   0.007202   0.005169  -0.000125  -0.000707
     6  C    0.000027  -0.000985   0.000311   0.001901   0.016365  -0.036405
     7  C    0.001423   0.001067  -0.000472  -0.000705  -0.000011   0.000097
     8  C   -0.049596  -0.060593  -0.038710  -0.000005   0.000003  -0.000014
     9  C   -0.000809  -0.007881  -0.009767  -0.005131  -0.003431   0.003832
    10  H    0.000505  -0.003220  -0.002692   0.002195  -0.000125  -0.000194
    11  H   -0.000072  -0.000263   0.000931   0.000862   0.000051  -0.000098
    12  C   -0.000472   0.006457  -0.001067  -0.283005  -0.012506   0.073308
    13  C   -0.000027   0.000316   0.000217   0.281854  -0.029795  -0.092913
    14  C    0.000027   0.000086  -0.000399  -0.000024  -0.000001  -0.000002
    15  H   -0.000008  -0.000023  -0.000007   0.000002   0.000000   0.000000
    16  H    0.000006  -0.000067   0.000051  -0.000000   0.000000   0.000000
    17  H    0.000009   0.000017  -0.000047   0.000000  -0.000000   0.000000
    18  C    0.380626   0.375612   0.397728   0.000011  -0.000002   0.000004
    19  H    0.510801  -0.017868  -0.011869  -0.000001  -0.000000   0.000000
    20  H   -0.017868   0.545879  -0.029828   0.000010  -0.000000  -0.000000
    21  H   -0.011869  -0.029828   0.522189   0.000001   0.000001  -0.000000
    22  C   -0.000001   0.000010   0.000001   5.467956   0.403030   0.392265
    23  H   -0.000000  -0.000000   0.000001   0.403030   0.511992  -0.028248
    24  H    0.000000  -0.000000  -0.000000   0.392265  -0.028248   0.549536
    25  H    0.000000   0.000000  -0.000003   0.369691  -0.012441  -0.020112
    26  C    0.000001  -0.000013   0.000006  -0.028167  -0.015911   0.014449
    27  H   -0.000000  -0.000000   0.000001  -0.011015   0.002578  -0.002309
    28  H    0.000000   0.000000  -0.000000   0.008026  -0.003536  -0.010634
    29  H    0.000000   0.000000  -0.000000   0.001940   0.000000   0.000871
              25         26         27         28         29
     1  O    0.010280   0.000803  -0.000069  -0.000352   0.000017
     2  O   -0.000000  -0.000001   0.000000  -0.000000   0.000000
     3  N    0.000004  -0.039236  -0.002119   0.002519   0.001179
     4  H   -0.000003  -0.006582   0.000525   0.000813   0.001111
     5  C   -0.000129  -0.001733   0.000910  -0.000287  -0.000724
     6  C   -0.002484   0.173253  -0.053578  -0.057294  -0.057291
     7  C    0.000042   0.005799   0.000231  -0.000499   0.003974
     8  C    0.000005   0.000159  -0.000039   0.000003   0.000017
     9  C    0.001730   0.018495  -0.001868   0.001299  -0.000678
    10  H   -0.000169  -0.000059   0.000015   0.000012  -0.000001
    11  H    0.000007  -0.000453  -0.000033   0.000021   0.000057
    12  C    0.025478  -0.072924  -0.018818   0.000239   0.025050
    13  C   -0.039292  -0.046053   0.005805  -0.003356  -0.000310
    14  C    0.000001   0.000919  -0.000415   0.000105   0.000082
    15  H    0.000000   0.000228   0.000013  -0.000011   0.000066
    16  H   -0.000000   0.000058   0.000009  -0.000002  -0.000010
    17  H    0.000000  -0.000198  -0.000065   0.000007   0.000016
    18  C    0.000001   0.000027  -0.000001   0.000000   0.000001
    19  H    0.000000   0.000001  -0.000000   0.000000   0.000000
    20  H    0.000000  -0.000013  -0.000000   0.000000   0.000000
    21  H   -0.000003   0.000006   0.000001  -0.000000  -0.000000
    22  C    0.369691  -0.028167  -0.011015   0.008026   0.001940
    23  H   -0.012441  -0.015911   0.002578  -0.003536   0.000000
    24  H   -0.020112   0.014449  -0.002309  -0.010634   0.000871
    25  H    0.510655   0.001594  -0.000395   0.001575  -0.000025
    26  C    0.001594   5.239866   0.436837   0.426996   0.393955
    27  H   -0.000395   0.436837   0.514292  -0.033283  -0.023681
    28  H    0.001575   0.426996  -0.033283   0.522124  -0.022759
    29  H   -0.000025   0.393955  -0.023681  -0.022759   0.530825
 Mulliken charges:
               1
     1  O   -0.385537
     2  O   -0.376089
     3  N   -0.137798
     4  H    0.292653
     5  C   -0.035548
     6  C    0.214717
     7  C    0.105721
     8  C    0.140056
     9  C   -0.318974
    10  H    0.203844
    11  H    0.220450
    12  C   -0.095246
    13  C    0.133412
    14  C   -0.384968
    15  H    0.118351
    16  H    0.162528
    17  H    0.159432
    18  C   -0.459190
    19  H    0.150840
    20  H    0.147910
    21  H    0.164005
    22  C   -0.496173
    23  H    0.170087
    24  H    0.152579
    25  H    0.153988
    26  C   -0.502113
    27  H    0.186470
    28  H    0.168273
    29  H    0.146317
 Sum of Mulliken charges =  -0.00000
 Mulliken charges with hydrogens summed into heavy atoms:
               1
     1  O   -0.385537
     2  O   -0.376089
     3  N    0.154855
     5  C   -0.035548
     6  C    0.214717
     7  C    0.105721
     8  C    0.140056
     9  C    0.105321
    12  C   -0.095246
    13  C    0.133412
    14  C    0.055343
    18  C    0.003564
    22  C   -0.019517
    26  C   -0.001052
 Electronic spatial extent (au):  <R**2>=           3186.7918
 Charge=              0.0000 electrons
 Dipole moment (field-independent basis, Debye):
    X=              3.2832    Y=              7.3909    Z=             -0.8786  Tot=              8.1350
 Quadrupole moment (field-independent basis, Debye-Ang):
   XX=           -103.5582   YY=            -79.6271   ZZ=            -84.7340
   XY=             12.6387   XZ=              5.7188   YZ=             -1.1827
 Traceless Quadrupole moment (field-independent basis, Debye-Ang):
   XX=            -14.2517   YY=              9.6793   ZZ=              4.5724
   XY=             12.6387   XZ=              5.7188   YZ=             -1.1827
 Octapole moment (field-independent basis, Debye-Ang**2):
  XXX=             98.2099  YYY=             65.7089  ZZZ=              0.1656  XYY=            -35.3825
  XXY=             30.2557  XXZ=            -11.5362  XZZ=              2.0921  YZZ=             -1.8575
  YYZ=              1.2599  XYZ=             -5.3195
 Hexadecapole moment (field-independent basis, Debye-Ang**3):
 XXXX=          -3082.2232 YYYY=          -1284.4695 ZZZZ=           -160.2562 XXXY=             39.0265
 XXXZ=             65.0678 YYYX=             85.3585 YYYZ=            -22.8213 ZZZX=             -2.5405
 ZZZY=              7.5957 XXYY=           -713.8512 XXZZ=           -495.6364 YYZZ=           -243.5682
 XXYZ=             -7.1179 YYXZ=              6.3984 ZZXY=             -1.7240
 N-N= 9.007021977949D+02 E-N=-3.277079497154D+03  KE= 6.307877592566D+02
 No NMR shielding tensors so no spin-rotation constants.
 Leave Link  601 at Tue Jan 20 18:36:09 2026, MaxMem=  2147483648 cpu:               3.9 elap:               0.1
 (Enter /data/home/wyx/g16/l9999.exe)
 Electronic transition elements 
                 1             2             3             4             5 
      1  -0.633198D+03 -0.633178D+03 -0.633173D+03 -0.633138D+03 -0.633121D+03
      2  -0.142390D+01 -0.182203D+00 -0.364146D-01  0.282086D+00  0.417522D+00
      3  -0.346778D+00 -0.655362D-01  0.108875D+00 -0.131749D+01 -0.140010D+01
      4  -0.115124D+00  0.258981D-01 -0.431203D-01  0.197879D+00  0.141002D+00
      5   0.178240D+00  0.260413D-01  0.591466D-02 -0.487450D-01 -0.842826D-01
      6   0.472612D-01  0.983794D-02 -0.158982D-01  0.241281D+00  0.285722D+00
      7   0.130844D-01 -0.133576D-02  0.323265D-02 -0.317922D-01 -0.290706D-01
      8   0.516073D-01  0.848974D+00  0.493721D+00  0.725036D-01  0.214679D+00
      9  -0.608167D-01  0.117968D+00 -0.895145D+00 -0.625734D-01 -0.215998D-01
     10  -0.141779D+01 -0.333177D+00 -0.910996D-01  0.443515D-01  0.304359D+00
     11   0.197383D+00  0.460544D-01  0.164203D-01 -0.988319D+00 -0.715404D+00
     12  -0.273857D+00 -0.475286D-01 -0.311163D-01  0.121271D+00  0.295849D+00
     13   0.171041D-01 -0.140068D-02  0.401953D-01 -0.305619D-02  0.553016D-01
     14  -0.481825D+00 -0.670177D-01 -0.303489D-01 -0.390863D+00 -0.167417D+00
     15   0.940987D-01  0.211124D-02  0.552082D-01 -0.107080D-01 -0.233248D-01
     16  -0.177147D-01  0.778361D-01  0.244382D-01 -0.776247D-01  0.342853D-01
                 6 
      1  -0.633105D+03
      2  -0.523398D-01
      3   0.213704D+00
      4   0.751727D-01
      5   0.121774D-01
      6  -0.451379D-01
      7  -0.356927D-01
      8  -0.719387D-01
      9  -0.277623D-01
     10  -0.754344D-02
     11  -0.186028D+00
     12  -0.186596D+00
     13   0.184744D+00
     14   0.124595D-01
     15  -0.172266D-01
     16   0.241144D-01
 1\1\GINC-CN012\SP\RCAM-B3LYP TD-FC\TZVP\C11H15N1O2\WYX\20-Jan-2026\0\\
 #p CAM-B3LYP/TZVP em=gd3bj TD=(NStates=6,Root=1) SCRF=(Solvent=TetraHy
 droFuran,CorrectedLR) Geom=Check Guess=Read\\Title Card Required\\0,1\
 O,0,1.3883960775,9.8336717387,0.5582315683\O,0,-4.8624938871,9.7804897
 797,0.5013599976\N,0,-2.0755189786,12.9057425299,-0.0090041963\H,0,-2.
 3838893731,13.8625681037,-0.063572052\C,0,-2.6812822897,10.6400273681,
 0.15989486\C,0,-0.740633194,12.6900307684,0.267654284\C,0,-3.052503175
 1,11.937883029,0.0858191433\C,0,-3.671671872,9.5713867266,0.3018715906
 \C,0,-1.2214358023,10.2796174369,0.0028412219\H,0,-0.9669008589,9.4283
 125823,0.6298412022\H,0,-1.0147658763,9.9468965913,-1.0229871782\C,0,-
 0.2936872008,11.4185556739,0.3638064623\C,0,1.0656547577,11.0043009112
 ,0.7227901156\C,0,-4.4450907741,12.4816792995,0.1004719844\H,0,-4.4475
 660774,13.5278211779,-0.2061933153\H,0,-5.0972683201,11.9112858027,-0.
 5540871906\H,0,-4.8721953269,12.4112791319,1.1005990847\C,0,-3.1783922
 666,8.1491167399,0.1948310844\H,0,-4.0337076815,7.4797541298,0.1566583
 063\H,0,-2.5539959462,8.005148551,-0.6875185976\H,0,-2.567852293,7.895
 4501681,1.0639636569\C,0,2.0797773278,11.9426549791,1.3319192407\H,0,2
 .5961278604,12.501596037,0.5496536412\H,0,1.6400497254,12.6545928673,2
 .0255843794\H,0,2.8191326528,11.3372009929,1.8507580616\C,0,0.02271256
 ,13.9704101926,0.4248596158\H,0,0.0390753624,14.2875882736,1.468826316
 1\H,0,1.043909652,13.8924786926,0.0732762301\H,0,-0.4631558123,14.7582
 941741,-0.1501495175\\Version=ES64L-G16RevA.03\State=1-A\HF=-633.32895
 28\RMSD=1.731e-09\Dipole=0.2816904,3.1628316,-0.400722\Quadrupole=-15.
 2716205,11.1675878,4.1040328,1.6572714,2.1131485,0.5934492\PG=C01 [X(C
 11H15N1O2)]\\@


 THERE IS MORE TO LIFE THAN INCREASING ITS SPEED.

                                       -- GANDHI
 Job cpu time:       0 days  5 hours  6 minutes 43.7 seconds.
 Elapsed time:       0 days  0 hours 10 minutes 12.1 seconds.
 File lengths (MBytes):  RWF=    819 Int=      0 D2E=      0 Chk=     67 Scr=      1
 Normal termination of Gaussian 16 at Tue Jan 20 18:36:11 2026.
