 Entering Gaussian System, Link 0=g16
 Input=DDL-S1-opt-freq.gjf
 Output=DDL-S1-opt-freq.log
 Initial command:
 /data/home/wyx/g16/l1.exe "/scr/tmp/wyx/13032/Gau-1811396.inp" -scrdir="/scr/tmp/wyx/13032/"
 Entering Link 1 = /data/home/wyx/g16/l1.exe PID=   1811397.
  
 Copyright (c) 1988,1990,1992,1993,1995,1998,2003,2009,2016,
            Gaussian, Inc.  All Rights Reserved.
  
 This is part of the Gaussian(R) 16 program.  It is based on
 the Gaussian(R) 09 system (copyright 2009, Gaussian, Inc.),
 the Gaussian(R) 03 system (copyright 2003, Gaussian, Inc.),
 the Gaussian(R) 98 system (copyright 1998, Gaussian, Inc.),
 the Gaussian(R) 94 system (copyright 1995, Gaussian, Inc.),
 the Gaussian 92(TM) system (copyright 1992, Gaussian, Inc.),
 the Gaussian 90(TM) system (copyright 1990, Gaussian, Inc.),
 the Gaussian 88(TM) system (copyright 1988, Gaussian, Inc.),
 the Gaussian 86(TM) system (copyright 1986, Carnegie Mellon
 University), and the Gaussian 82(TM) system (copyright 1983,
 Carnegie Mellon University). Gaussian is a federally registered
 trademark of Gaussian, Inc.
  
 This software contains proprietary and confidential information,
 including trade secrets, belonging to Gaussian, Inc.
  
 This software is provided under written license and may be
 used, copied, transmitted, or stored only in accord with that
 written license.
  
 The following legend is applicable only to US Government
 contracts under FAR:
  
                    RESTRICTED RIGHTS LEGEND
  
 Use, reproduction and disclosure by the US Government is
 subject to restrictions as set forth in subparagraphs (a)
 and (c) of the Commercial Computer Software - Restricted
 Rights clause in FAR 52.227-19.
  
 Gaussian, Inc.
 340 Quinnipiac St., Bldg. 40, Wallingford CT 06492
  
  
 ---------------------------------------------------------------
 Warning -- This program may not be used in any manner that
 competes with the business of Gaussian, Inc. or will provide
 assistance to any competitor of Gaussian, Inc.  The licensee
 of this program is prohibited from giving any competitor of
 Gaussian, Inc. access to this program.  By using this program,
 the user acknowledges that Gaussian, Inc. is engaged in the
 business of creating and licensing software in the field of
 computational chemistry and represents and warrants to the
 licensee that it is not a competitor of Gaussian, Inc. and that
 it will not use this program in any manner prohibited above.
 ---------------------------------------------------------------
  

 Cite this work as:
 Gaussian 16, Revision A.03,
 M. J. Frisch, G. W. Trucks, H. B. Schlegel, G. E. Scuseria, 
 M. A. Robb, J. R. Cheeseman, G. Scalmani, V. Barone, 
 G. A. Petersson, H. Nakatsuji, X. Li, M. Caricato, A. V. Marenich, 
 J. Bloino, B. G. Janesko, R. Gomperts, B. Mennucci, H. P. Hratchian, 
 J. V. Ortiz, A. F. Izmaylov, J. L. Sonnenberg, D. Williams-Young, 
 F. Ding, F. Lipparini, F. Egidi, J. Goings, B. Peng, A. Petrone, 
 T. Henderson, D. Ranasinghe, V. G. Zakrzewski, J. Gao, N. Rega, 
 G. Zheng, W. Liang, M. Hada, M. Ehara, K. Toyota, R. Fukuda, 
 J. Hasegawa, M. Ishida, T. Nakajima, Y. Honda, O. Kitao, H. Nakai, 
 T. Vreven, K. Throssell, J. A. Montgomery, Jr., J. E. Peralta, 
 F. Ogliaro, M. J. Bearpark, J. J. Heyd, E. N. Brothers, K. N. Kudin, 
 V. N. Staroverov, T. A. Keith, R. Kobayashi, J. Normand, 
 K. Raghavachari, A. P. Rendell, J. C. Burant, S. S. Iyengar, 
 J. Tomasi, M. Cossi, J. M. Millam, M. Klene, C. Adamo, R. Cammi, 
 J. W. Ochterski, R. L. Martin, K. Morokuma, O. Farkas, 
 J. B. Foresman, and D. J. Fox, Gaussian, Inc., Wallingford CT, 2016.
 
 ******************************************
 Gaussian 16:  ES64L-G16RevA.03 25-Dec-2016
                20-Jan-2026 
 ******************************************
 %nprocshared=32
 Will use up to   32 processors via shared memory.
 %mem=16GB
 %oldchk=DDL-S0-TD.chk
 %chk=DDL-S1-opt-freq.chk
 Copying data from "DDL-S0-TD.chk" to current chk file "DDL-S1-opt-freq.chk"
 IOpt=  2 FromEx=T IUOpen= 4 IOptOp= 5 NList=   0 IFRang= 0 IUIn= 4 IUOut= 2.
 ----------------------------------------------------------------------
 #p CAM-B3LYP/TZVP em=gd3bj TD=(NStates=6,Root=1) SCRF=Solvent=TetraHyd
 roFuran Geom=Check Guess=Read Opt Freq NoSymm
 ----------------------------------------------------------------------
 1/18=20,19=15,26=3,29=2,38=1/1,3;
 2/9=110,12=2,15=1,40=1/2;
 3/5=19,7=101,11=9,14=-4,25=1,30=1,70=2201,71=1,72=20,74=-40,116=-2,124=41/1,2,3,8;
 4/5=1/1;
 5/5=2,38=6,53=20/2;
 8/6=1,10=1,107=1,108=6/1;
 9/8=1,15=2,41=6,42=1,70=2/14;
 10/5=4,28=1,31=1/2;
 6/7=2,8=2,9=2,10=2/1;
 7/12=6,13=5,14=1,30=1/1,2,3,16;
 1/18=20,19=15,26=3/3(2);
 2/9=110,15=1/2;
 99//99;
 2/9=110,15=1/2;
 3/5=19,7=101,11=9,14=-2,25=1,30=1,70=2205,71=1,72=20,74=-40,124=41/1,2,3,8;
 4/5=5,16=3,69=1/1;
 5/5=2,38=5,53=20/2;
 8/6=1,10=1,107=1,108=6/1;
 9/8=1,15=2,41=6,42=1,49=4,70=2/14;
 10/5=4,28=1,31=1/2;
 7/12=6,13=5,14=1,30=1/1,2,3,16;
 1/18=20,19=15,26=3/3(-8);
 2/9=110,15=1/2;
 6/7=2,8=2,9=2,10=2/1;
 99//99;
 Leave Link    1 at Tue Jan 20 18:45:41 2026, MaxMem=  2147483648 cpu:               5.6 elap:               0.3
 (Enter /data/home/wyx/g16/l101.exe)
 -------------------
 Title Card Required
 -------------------
 Structure from the checkpoint file:  "DDL-S1-opt-freq.chk"
 Charge =  0 Multiplicity = 1
 Redundant internal coordinates found in file.  (old form).
 O,0,1.3883960775,9.8336717387,0.5582315683
 O,0,-4.8624938871,9.7804897797,0.5013599976
 N,0,-2.0755189786,12.9057425299,-0.0090041963
 H,0,-2.3838893731,13.8625681037,-0.063572052
 C,0,-2.6812822897,10.6400273681,0.15989486
 C,0,-0.740633194,12.6900307684,0.267654284
 C,0,-3.0525031751,11.937883029,0.0858191433
 C,0,-3.671671872,9.5713867266,0.3018715906
 C,0,-1.2214358023,10.2796174369,0.0028412219
 H,0,-0.9669008589,9.4283125823,0.6298412022
 H,0,-1.0147658763,9.9468965913,-1.0229871782
 C,0,-0.2936872008,11.4185556739,0.3638064623
 C,0,1.0656547577,11.0043009112,0.7227901156
 C,0,-4.4450907741,12.4816792995,0.1004719844
 H,0,-4.4475660774,13.5278211779,-0.2061933153
 H,0,-5.0972683201,11.9112858027,-0.5540871906
 H,0,-4.8721953269,12.4112791319,1.1005990847
 C,0,-3.1783922666,8.1491167399,0.1948310844
 H,0,-4.0337076815,7.4797541298,0.1566583063
 H,0,-2.5539959462,8.005148551,-0.6875185976
 H,0,-2.567852293,7.8954501681,1.0639636569
 C,0,2.0797773278,11.9426549791,1.3319192407
 H,0,2.5961278604,12.501596037,0.5496536412
 H,0,1.6400497254,12.6545928673,2.0255843794
 H,0,2.8191326528,11.3372009929,1.8507580616
 C,0,0.02271256,13.9704101926,0.4248596158
 H,0,0.0390753624,14.2875882736,1.4688263161
 H,0,1.043909652,13.8924786926,0.0732762301
 H,0,-0.4631558123,14.7582941741,-0.1501495175
 Recover connectivity data from disk.
 ITRead=  0  0  0  0  0  0  0  0  0  0  0  0  0  0  0  0  0  0  0  0
 ITRead=  0  0  0  0  0  0  0  0  0
 MicOpt= -1 -1 -1 -1 -1 -1 -1 -1 -1 -1 -1 -1 -1 -1 -1 -1 -1 -1 -1 -1
 MicOpt= -1 -1 -1 -1 -1 -1 -1 -1 -1
 NAtoms=     29 NQM=       29 NQMF=       0 NMMI=      0 NMMIF=      0
                NMic=       0 NMicF=      0.
                    Isotopes and Nuclear Properties:
 (Nuclear quadrupole moments (NQMom) in fm**2, nuclear magnetic moments (NMagM)
  in nuclear magnetons)

  Atom         1           2           3           4           5           6           7           8           9          10
 IAtWgt=          16          16          14           1          12          12          12          12          12           1
 AtmWgt=  15.9949146  15.9949146  14.0030740   1.0078250  12.0000000  12.0000000  12.0000000  12.0000000  12.0000000   1.0078250
 NucSpn=           0           0           2           1           0           0           0           0           0           1
 AtZEff=   5.6000000   5.6000000   4.5500000   1.0000000   3.6000000   3.6000000   3.6000000   3.6000000   3.6000000   1.0000000
 NQMom=    0.0000000   0.0000000   2.0440000   0.0000000   0.0000000   0.0000000   0.0000000   0.0000000   0.0000000   0.0000000
 NMagM=    0.0000000   0.0000000   0.4037610   2.7928460   0.0000000   0.0000000   0.0000000   0.0000000   0.0000000   2.7928460
 AtZNuc=   8.0000000   8.0000000   7.0000000   1.0000000   6.0000000   6.0000000   6.0000000   6.0000000   6.0000000   1.0000000

  Atom        11          12          13          14          15          16          17          18          19          20
 IAtWgt=           1          12          12          12           1           1           1          12           1           1
 AtmWgt=   1.0078250  12.0000000  12.0000000  12.0000000   1.0078250   1.0078250   1.0078250  12.0000000   1.0078250   1.0078250
 NucSpn=           1           0           0           0           1           1           1           0           1           1
 AtZEff=   1.0000000   3.6000000   3.6000000   3.6000000   1.0000000   1.0000000   1.0000000   3.6000000   1.0000000   1.0000000
 NQMom=    0.0000000   0.0000000   0.0000000   0.0000000   0.0000000   0.0000000   0.0000000   0.0000000   0.0000000   0.0000000
 NMagM=    2.7928460   0.0000000   0.0000000   0.0000000   2.7928460   2.7928460   2.7928460   0.0000000   2.7928460   2.7928460
 AtZNuc=   1.0000000   6.0000000   6.0000000   6.0000000   1.0000000   1.0000000   1.0000000   6.0000000   1.0000000   1.0000000

  Atom        21          22          23          24          25          26          27          28          29
 IAtWgt=           1          12           1           1           1          12           1           1           1
 AtmWgt=   1.0078250  12.0000000   1.0078250   1.0078250   1.0078250  12.0000000   1.0078250   1.0078250   1.0078250
 NucSpn=           1           0           1           1           1           0           1           1           1
 AtZEff=   1.0000000   3.6000000   1.0000000   1.0000000   1.0000000   3.6000000   1.0000000   1.0000000   1.0000000
 NQMom=    0.0000000   0.0000000   0.0000000   0.0000000   0.0000000   0.0000000   0.0000000   0.0000000   0.0000000
 NMagM=    2.7928460   0.0000000   2.7928460   2.7928460   2.7928460   0.0000000   2.7928460   2.7928460   2.7928460
 AtZNuc=   1.0000000   6.0000000   1.0000000   1.0000000   1.0000000   6.0000000   1.0000000   1.0000000   1.0000000
 Leave Link  101 at Tue Jan 20 18:45:43 2026, MaxMem=  2147483648 cpu:               6.5 elap:               0.2
 (Enter /data/home/wyx/g16/l103.exe)

 GradGradGradGradGradGradGradGradGradGradGradGradGradGradGradGradGradGrad
 Berny optimization.
 Initialization pass.
                           ----------------------------
                           !    Initial Parameters    !
                           ! (Angstroms and Degrees)  !
 --------------------------                            --------------------------
 ! Name  Definition              Value          Derivative Info.                !
 --------------------------------------------------------------------------------
 ! R1    R(1,13)                 1.2254         estimate D2E/DX2                !
 ! R2    R(2,8)                  1.2254         estimate D2E/DX2                !
 ! R3    R(3,4)                  1.0068         estimate D2E/DX2                !
 ! R4    R(3,6)                  1.3802         estimate D2E/DX2                !
 ! R5    R(3,7)                  1.3785         estimate D2E/DX2                !
 ! R6    R(5,7)                  1.3519         estimate D2E/DX2                !
 ! R7    R(5,8)                  1.4639         estimate D2E/DX2                !
 ! R8    R(5,9)                  1.5119         estimate D2E/DX2                !
 ! R9    R(6,12)                 1.3512         estimate D2E/DX2                !
 ! R10   R(6,26)                 1.4989         estimate D2E/DX2                !
 ! R11   R(7,14)                 1.4951         estimate D2E/DX2                !
 ! R12   R(8,18)                 1.5092         estimate D2E/DX2                !
 ! R13   R(9,10)                 1.0875         estimate D2E/DX2                !
 ! R14   R(9,11)                 1.0981         estimate D2E/DX2                !
 ! R15   R(9,12)                 1.5127         estimate D2E/DX2                !
 ! R16   R(12,13)                1.4657         estimate D2E/DX2                !
 ! R17   R(13,22)                1.51           estimate D2E/DX2                !
 ! R18   R(14,15)                1.0902         estimate D2E/DX2                !
 ! R19   R(14,16)                1.0859         estimate D2E/DX2                !
 ! R20   R(14,17)                1.0898         estimate D2E/DX2                !
 ! R21   R(18,19)                1.0868         estimate D2E/DX2                !
 ! R22   R(18,20)                1.0905         estimate D2E/DX2                !
 ! R23   R(18,21)                1.092          estimate D2E/DX2                !
 ! R24   R(22,23)                1.0913         estimate D2E/DX2                !
 ! R25   R(22,24)                1.0869         estimate D2E/DX2                !
 ! R26   R(22,25)                1.0874         estimate D2E/DX2                !
 ! R27   R(26,27)                1.0912         estimate D2E/DX2                !
 ! R28   R(26,28)                1.0828         estimate D2E/DX2                !
 ! R29   R(26,29)                1.0897         estimate D2E/DX2                !
 ! A1    A(4,3,6)              117.1059         estimate D2E/DX2                !
 ! A2    A(4,3,7)              116.9961         estimate D2E/DX2                !
 ! A3    A(6,3,7)              124.1899         estimate D2E/DX2                !
 ! A4    A(7,5,8)              121.355          estimate D2E/DX2                !
 ! A5    A(7,5,9)              119.2289         estimate D2E/DX2                !
 ! A6    A(8,5,9)              119.2957         estimate D2E/DX2                !
 ! A7    A(3,6,12)             118.7675         estimate D2E/DX2                !
 ! A8    A(3,6,26)             112.3373         estimate D2E/DX2                !
 ! A9    A(12,6,26)            128.8951         estimate D2E/DX2                !
 ! A10   A(3,7,5)              118.894          estimate D2E/DX2                !
 ! A11   A(3,7,14)             113.9193         estimate D2E/DX2                !
 ! A12   A(5,7,14)             127.186          estimate D2E/DX2                !
 ! A13   A(2,8,5)              123.2762         estimate D2E/DX2                !
 ! A14   A(2,8,18)             119.3402         estimate D2E/DX2                !
 ! A15   A(5,8,18)             117.3836         estimate D2E/DX2                !
 ! A16   A(5,9,10)             110.6541         estimate D2E/DX2                !
 ! A17   A(5,9,11)             110.5497         estimate D2E/DX2                !
 ! A18   A(5,9,12)             112.8262         estimate D2E/DX2                !
 ! A19   A(10,9,11)            104.9145         estimate D2E/DX2                !
 ! A20   A(10,9,12)            107.9551         estimate D2E/DX2                !
 ! A21   A(11,9,12)            109.6113         estimate D2E/DX2                !
 ! A22   A(6,12,9)             119.2528         estimate D2E/DX2                !
 ! A23   A(6,12,13)            126.1692         estimate D2E/DX2                !
 ! A24   A(9,12,13)            114.4848         estimate D2E/DX2                !
 ! A25   A(1,13,12)            118.775          estimate D2E/DX2                !
 ! A26   A(1,13,22)            118.0959         estimate D2E/DX2                !
 ! A27   A(12,13,22)           123.0962         estimate D2E/DX2                !
 ! A28   A(7,14,15)            110.3893         estimate D2E/DX2                !
 ! A29   A(7,14,16)            111.2515         estimate D2E/DX2                !
 ! A30   A(7,14,17)            110.521          estimate D2E/DX2                !
 ! A31   A(15,14,16)           109.4595         estimate D2E/DX2                !
 ! A32   A(15,14,17)           108.6182         estimate D2E/DX2                !
 ! A33   A(16,14,17)           106.492          estimate D2E/DX2                !
 ! A34   A(8,18,19)            109.008          estimate D2E/DX2                !
 ! A35   A(8,18,20)            111.6516         estimate D2E/DX2                !
 ! A36   A(8,18,21)            110.1944         estimate D2E/DX2                !
 ! A37   A(19,18,20)           109.9321         estimate D2E/DX2                !
 ! A38   A(19,18,21)           108.9598         estimate D2E/DX2                !
 ! A39   A(20,18,21)           107.0493         estimate D2E/DX2                !
 ! A40   A(13,22,23)           110.2974         estimate D2E/DX2                !
 ! A41   A(13,22,24)           113.128          estimate D2E/DX2                !
 ! A42   A(13,22,25)           107.6454         estimate D2E/DX2                !
 ! A43   A(23,22,24)           108.2646         estimate D2E/DX2                !
 ! A44   A(23,22,25)           107.7874         estimate D2E/DX2                !
 ! A45   A(24,22,25)           109.5892         estimate D2E/DX2                !
 ! A46   A(6,26,27)            110.8708         estimate D2E/DX2                !
 ! A47   A(6,26,28)            112.6279         estimate D2E/DX2                !
 ! A48   A(6,26,29)            109.5846         estimate D2E/DX2                !
 ! A49   A(27,26,28)           108.5063         estimate D2E/DX2                !
 ! A50   A(27,26,29)           107.539          estimate D2E/DX2                !
 ! A51   A(28,26,29)           107.5295         estimate D2E/DX2                !
 ! D1    D(4,3,6,12)           179.2483         estimate D2E/DX2                !
 ! D2    D(4,3,6,26)            -0.6253         estimate D2E/DX2                !
 ! D3    D(7,3,6,12)            14.6251         estimate D2E/DX2                !
 ! D4    D(7,3,6,26)          -165.2486         estimate D2E/DX2                !
 ! D5    D(4,3,7,5)            179.933          estimate D2E/DX2                !
 ! D6    D(4,3,7,14)            -0.3445         estimate D2E/DX2                !
 ! D7    D(6,3,7,5)            -15.4284         estimate D2E/DX2                !
 ! D8    D(6,3,7,14)           164.2941         estimate D2E/DX2                !
 ! D9    D(8,5,7,3)            178.1682         estimate D2E/DX2                !
 ! D10   D(8,5,7,14)            -1.5134         estimate D2E/DX2                !
 ! D11   D(9,5,7,3)             -5.8481         estimate D2E/DX2                !
 ! D12   D(9,5,7,14)           174.4703         estimate D2E/DX2                !
 ! D13   D(7,5,8,2)             -7.8593         estimate D2E/DX2                !
 ! D14   D(7,5,8,18)           172.1965         estimate D2E/DX2                !
 ! D15   D(9,5,8,2)            176.1596         estimate D2E/DX2                !
 ! D16   D(9,5,8,18)            -3.7846         estimate D2E/DX2                !
 ! D17   D(7,5,9,10)           145.7681         estimate D2E/DX2                !
 ! D18   D(7,5,9,11)           -98.4429         estimate D2E/DX2                !
 ! D19   D(7,5,9,12)            24.6971         estimate D2E/DX2                !
 ! D20   D(8,5,9,10)           -38.1645         estimate D2E/DX2                !
 ! D21   D(8,5,9,11)            77.6245         estimate D2E/DX2                !
 ! D22   D(8,5,9,12)          -159.2354         estimate D2E/DX2                !
 ! D23   D(3,6,12,9)             7.3526         estimate D2E/DX2                !
 ! D24   D(3,6,12,13)         -176.3612         estimate D2E/DX2                !
 ! D25   D(26,6,12,9)         -172.7975         estimate D2E/DX2                !
 ! D26   D(26,6,12,13)           3.4887         estimate D2E/DX2                !
 ! D27   D(3,6,26,27)           91.687          estimate D2E/DX2                !
 ! D28   D(3,6,26,28)         -146.513          estimate D2E/DX2                !
 ! D29   D(3,6,26,29)          -26.8661         estimate D2E/DX2                !
 ! D30   D(12,6,26,27)         -88.1708         estimate D2E/DX2                !
 ! D31   D(12,6,26,28)          33.6293         estimate D2E/DX2                !
 ! D32   D(12,6,26,29)         153.2762         estimate D2E/DX2                !
 ! D33   D(3,7,14,15)           13.6176         estimate D2E/DX2                !
 ! D34   D(3,7,14,16)          135.3458         estimate D2E/DX2                !
 ! D35   D(3,7,14,17)         -106.5678         estimate D2E/DX2                !
 ! D36   D(5,7,14,15)         -166.6874         estimate D2E/DX2                !
 ! D37   D(5,7,14,16)          -44.9592         estimate D2E/DX2                !
 ! D38   D(5,7,14,17)           73.1272         estimate D2E/DX2                !
 ! D39   D(2,8,18,19)            9.1984         estimate D2E/DX2                !
 ! D40   D(2,8,18,20)          130.8456         estimate D2E/DX2                !
 ! D41   D(2,8,18,21)         -110.3301         estimate D2E/DX2                !
 ! D42   D(5,8,18,19)         -170.8551         estimate D2E/DX2                !
 ! D43   D(5,8,18,20)          -49.2079         estimate D2E/DX2                !
 ! D44   D(5,8,18,21)           69.6164         estimate D2E/DX2                !
 ! D45   D(5,9,12,6)           -25.483          estimate D2E/DX2                !
 ! D46   D(5,9,12,13)          157.8108         estimate D2E/DX2                !
 ! D47   D(10,9,12,6)         -148.077          estimate D2E/DX2                !
 ! D48   D(10,9,12,13)          35.2168         estimate D2E/DX2                !
 ! D49   D(11,9,12,6)           98.1773         estimate D2E/DX2                !
 ! D50   D(11,9,12,13)         -78.5289         estimate D2E/DX2                !
 ! D51   D(6,12,13,1)         -168.1171         estimate D2E/DX2                !
 ! D52   D(6,12,13,22)          14.0106         estimate D2E/DX2                !
 ! D53   D(9,12,13,1)            8.3227         estimate D2E/DX2                !
 ! D54   D(9,12,13,22)        -169.5495         estimate D2E/DX2                !
 ! D55   D(1,13,22,23)          97.2933         estimate D2E/DX2                !
 ! D56   D(1,13,22,24)        -141.2852         estimate D2E/DX2                !
 ! D57   D(1,13,22,25)         -20.0578         estimate D2E/DX2                !
 ! D58   D(12,13,22,23)        -84.8209         estimate D2E/DX2                !
 ! D59   D(12,13,22,24)         36.6007         estimate D2E/DX2                !
 ! D60   D(12,13,22,25)        157.8281         estimate D2E/DX2                !
 --------------------------------------------------------------------------------
 Trust Radius=3.00D-01 FncErr=1.00D-07 GrdErr=1.00D-06 EigMax=2.50D+02 EigMin=1.00D-04
 Number of steps in this run=    150 maximum allowed number of steps=    174.
 GradGradGradGradGradGradGradGradGradGradGradGradGradGradGradGradGradGrad

 Leave Link  103 at Tue Jan 20 18:45:43 2026, MaxMem=  2147483648 cpu:               0.2 elap:               0.0
 (Enter /data/home/wyx/g16/l202.exe)
                          Input orientation:                          
 ---------------------------------------------------------------------
 Center     Atomic      Atomic             Coordinates (Angstroms)
 Number     Number       Type             X           Y           Z
 ---------------------------------------------------------------------
      1          8           0        1.388396    9.833672    0.558232
      2          8           0       -4.862494    9.780490    0.501360
      3          7           0       -2.075519   12.905743   -0.009004
      4          1           0       -2.383889   13.862568   -0.063572
      5          6           0       -2.681282   10.640027    0.159895
      6          6           0       -0.740633   12.690031    0.267654
      7          6           0       -3.052503   11.937883    0.085819
      8          6           0       -3.671672    9.571387    0.301872
      9          6           0       -1.221436   10.279617    0.002841
     10          1           0       -0.966901    9.428313    0.629841
     11          1           0       -1.014766    9.946897   -1.022987
     12          6           0       -0.293687   11.418556    0.363806
     13          6           0        1.065655   11.004301    0.722790
     14          6           0       -4.445091   12.481679    0.100472
     15          1           0       -4.447566   13.527821   -0.206193
     16          1           0       -5.097268   11.911286   -0.554087
     17          1           0       -4.872195   12.411279    1.100599
     18          6           0       -3.178392    8.149117    0.194831
     19          1           0       -4.033708    7.479754    0.156658
     20          1           0       -2.553996    8.005149   -0.687519
     21          1           0       -2.567852    7.895450    1.063964
     22          6           0        2.079777   11.942655    1.331919
     23          1           0        2.596128   12.501596    0.549654
     24          1           0        1.640050   12.654593    2.025584
     25          1           0        2.819133   11.337201    1.850758
     26          6           0        0.022713   13.970410    0.424860
     27          1           0        0.039075   14.287588    1.468826
     28          1           0        1.043910   13.892479    0.073276
     29          1           0       -0.463156   14.758294   -0.150150
 ---------------------------------------------------------------------
                    Distance matrix (angstroms):
                    1          2          3          4          5
     1  O    0.000000
     2  O    6.251375   0.000000
     3  N    4.664556   4.218401   0.000000
     4  H    5.554168   4.808949   1.006770   0.000000
     5  C    4.167873   2.369196   2.351370   3.243940   0.000000
     6  C    3.574351   5.050721   1.380214   2.045690   2.824933
     7  C    4.936848   2.846592   1.378493   2.042982   1.351932
     8  C    5.073342   1.225388   3.709754   4.495127   1.463906
     9  C    2.705282   3.708767   2.761545   3.767392   1.511857
    10  H    2.390997   3.913589   3.705358   4.706517   2.151327
    11  H    2.878934   4.142021   3.302746   4.257635   2.157989
    12  C    2.319281   4.855530   2.350667   3.244194   2.519583
    13  C    1.225404   6.057202   3.744059   4.548342   3.806453
    14  C    6.422699   2.762492   2.409706   2.486426   2.550732
    15  H    6.949068   3.836051   2.460177   2.095509   3.404869
    16  H    6.900549   2.389431   3.227542   3.377948   2.821853
    17  H    6.792145   2.698191   3.049117   3.106960   2.970245
    18  C    4.881121   2.364643   4.887061   5.774213   2.540271
    19  H    5.924643   2.469634   5.770901   6.596265   3.437498
    20  H    4.520824   3.145542   4.970427   5.893014   2.770722
    21  H    4.434452   3.022462   5.147493   6.075498   2.891870
    22  C    2.350407   7.318464   4.471253   5.055471   5.073280
    23  H    2.928568   7.939634   4.722258   5.198929   5.609671
    24  H    3.189679   7.270956   4.243593   4.692107   5.119881
    25  H    2.445042   7.953088   5.465954   6.092091   5.796519
    26  C    4.358381   6.436344   2.392557   2.458033   4.298051
    27  H    4.742069   6.728693   2.926600   2.898214   4.734802
    28  H    4.102166   7.209529   3.272805   3.430660   4.946008
    29  H    5.308668   6.675116   2.459997   2.121094   4.687892
                    6          7          8          9         10
     6  C    0.000000
     7  C    2.437936   0.000000
     8  C    4.279965   2.455678   0.000000
     9  C    2.472122   2.471748   2.568008   0.000000
    10  H    3.289556   3.308117   2.728337   1.087491   0.000000
    11  H    3.043959   3.057099   2.992559   1.098062   1.732935
    12  C    1.351168   2.821000   3.850539   1.512678   2.117796
    13  C    2.512272   4.270425   4.967160   2.504850   2.573647
    14  C    3.714077   1.495068   3.018036   3.905196   4.658442
    15  H    3.829853   2.135269   4.063682   4.582842   5.442422
    16  H    4.501330   2.142721   2.870561   4.242003   4.962537
    17  H    4.223897   2.136624   3.184998   4.367734   4.936702
    18  C    5.154403   3.792424   1.509183   2.899236   2.591577
    19  H    6.164709   4.565380   2.127694   3.971368   3.664162
    20  H    5.113586   4.038931   2.163607   2.724981   2.505934
    21  H    5.192383   4.187233   2.146617   2.936507   2.258578
    22  C    3.105792   5.281391   6.305797   3.928123   4.012117
    23  H    3.353954   5.695608   6.923354   4.450841   4.706025
    24  H    2.959599   5.128003   6.379007   4.233214   4.376434
    25  H    4.124112   6.160514   6.902731   4.567217   4.412317
    26  C    1.498927   3.701765   5.745869   3.917647   4.653171
    27  H    2.145449   4.122097   6.113427   4.449925   5.032737
    28  H    2.160615   4.538854   6.400063   4.264917   4.927667
    29  H    2.128208   3.836029   6.115792   4.544991   5.410254
                   11         12         13         14         15
    11  H    0.000000
    12  C    2.146842   0.000000
    13  C    2.914445   1.465704   0.000000
    14  C    4.410716   4.293452   5.739185   0.000000
    15  H    5.027354   4.693465   6.134066   1.090166   0.000000
    16  H    4.554725   4.915252   6.358825   1.085878   1.776606
    17  H    5.046044   4.742478   6.113951   1.089784   1.770503
    18  C    3.065350   4.363405   5.142252   4.514923   5.540946
    19  H    4.073373   5.435515   6.224663   5.019128   6.073060
    20  H    2.500431   4.226775   4.907724   4.923058   5.858088
    21  H    3.312986   4.251390   4.794135   5.048350   6.072086
    22  C    4.370908   2.616344   1.509964   6.661900   6.890918
    23  H    4.694491   3.091690   2.148073   7.055560   7.158077
    24  H    4.865537   2.833484   2.179602   6.384739   6.542356
    25  H    4.989001   3.450694   2.111355   7.559251   7.863509
    26  C    4.400146   2.572119   3.158211   4.720468   4.536243
    27  H    5.114814   3.092434   3.520002   5.024087   4.849009
    28  H    4.583400   2.827343   2.960391   5.667470   5.510661
    29  H    4.920942   3.383301   4.146294   4.593647   4.170459
                   16         17         18         19         20
    16  H    0.000000
    17  H    1.743169   0.000000
    18  C    4.289158   4.674977   0.000000
    19  H    4.612461   5.090582   1.086769   0.000000
    20  H    4.663040   5.290123   1.090476   1.782757   0.000000
    21  H    5.014277   5.069916   1.092015   1.773341   1.754969
    22  C    7.420781   6.971588   6.582724   7.659858   6.407335
    23  H    7.794553   7.489162   7.239824   8.326347   6.947835
    24  H    7.252494   6.582107   6.846047   7.903377   6.824095
    25  H    8.293507   7.802109   6.991157   8.044333   6.812924
    26  C    5.604689   5.181471   6.647364   7.658661   6.592508
    27  H    6.010076   5.270361   7.046701   8.040893   7.130420
    28  H    6.483269   6.184630   7.129433   8.179987   6.941498
    29  H    5.453771   5.149027   7.153513   8.112960   7.089806
                   21         22         23         24         25
    21  H    0.000000
    22  C    6.168641   0.000000
    23  H    6.938861   1.091317   0.000000
    24  H    6.424998   1.086916   1.765181   0.000000
    25  H    6.440831   1.087389   1.760233   1.776604   0.000000
    26  C    6.635105   3.027551   2.965713   2.628588   4.097187
    27  H    6.915158   3.111578   3.251640   2.353672   4.071778
    28  H    7.070406   2.541460   2.137960   2.387310   3.583337
    29  H    7.280278   4.073188   3.865440   3.685492   5.145962
                   26         27         28         29
    26  C    0.000000
    27  H    1.091209   0.000000
    28  H    1.082833   1.764473   0.000000
    29  H    1.089709   1.759228   1.752370   0.000000
 Symmetry turned off by external request.
 Stoichiometry    C11H15NO2
 Framework group  C1[X(C11H15NO2)]
 Deg. of freedom    81
 Full point group                 C1      NOp   1
 Rotational constants (GHZ):           1.0782823           0.4906712           0.3474065
 Leave Link  202 at Tue Jan 20 18:45:43 2026, MaxMem=  2147483648 cpu:               0.1 elap:               0.0
 (Enter /data/home/wyx/g16/l301.exe)
 Standard basis: TZVP (5D, 7F)
 Ernie: Thresh=  0.10000D-02 Tol=  0.10000D-05 Strict=F.
   356 basis functions,   610 primitive gaussians,   370 cartesian basis functions
    52 alpha electrons       52 beta electrons
       nuclear repulsion energy       900.7284104991 Hartrees.
 IExCor=20419 DFT=T Ex+Corr=CAM-B3LYP ExCW=0 ScaHFX=  1.000000
 ScaDFX=  1.000000  1.000000  1.000000  0.810000 ScalE2=  1.000000  1.000000
 IRadAn=      5 IRanWt=     -1 IRanGd=            0 ICorTp=0 IEmpDi=141
 HFx  wShort=  0.000000 wLong=  0.330000 cFull=  0.190000 cShort=  0.000000 cLong=  0.460000
 DFx  wShort=  0.000000 wLong=  0.330000 cFull=  0.190000 cShort=  0.000000 cLong=  0.460000
 NAtoms=   29 NActive=   29 NUniq=   29 SFac= 1.00D+00 NAtFMM=   60 NAOKFM=F Big=F
 Integral buffers will be    131072 words long.
 Raffenetti 1 integral format.
 Two-electron integral symmetry is turned off.
 R6Disp:  Grimme-D3(BJ) Dispersion energy=       -0.0262127042 Hartrees.
 Nuclear repulsion after empirical dispersion term =      900.7021977949 Hartrees.
 ------------------------------------------------------------------------------
 Polarizable Continuum Model (PCM)
 =================================
 Model                : PCM.
 Atomic radii         : UFF (Universal Force Field).
 Polarization charges : Total charges.
 Charge compensation  : None.
 Solution method      : On-the-fly selection.
 Cavity type          : Scaled VdW (van der Waals Surface) (Alpha=1.100).
 Cavity algorithm     : GePol (No added spheres)
                        Default sphere list used, NSphG=   29.
                        Lebedev-Laikov grids with approx.  5.0 points / Ang**2.
                        Smoothing algorithm: York/Karplus (Gamma=1.0000).
                        Polarization charges: spherical gaussians, with
                                              point-specific exponents (IZeta= 3).
                        Self-potential: point-specific (ISelfS= 7).
                        Self-field    : sphere-specific E.n sum rule (ISelfD= 2).
 1st derivatives      : Analytical E(r).r(x)/FMM algorithm (CHGder, D1EAlg=3).
                        Cavity 1st derivative terms included.
 Solvent              : TetraHydroFuran, Eps=   7.425700 Eps(inf)=   1.974025
 ------------------------------------------------------------------------------
 GePol: Number of generator spheres                  =      29
 GePol: Total number of spheres                      =      29
 GePol: Number of exposed spheres                    =      29 (100.00%)
 GePol: Number of points                             =    2089
 GePol: Average weight of points                     =       0.13
 GePol: Minimum weight of points                     =   0.12D-08
 GePol: Maximum weight of points                     =    0.20577
 GePol: Number of points with low weight             =     123
 GePol: Fraction of low-weight points (<1% of avg)   =       5.89%
 GePol: Cavity surface area                          =    269.505 Ang**2
 GePol: Cavity volume                                =    286.068 Ang**3
 Leave Link  301 at Tue Jan 20 18:45:43 2026, MaxMem=  2147483648 cpu:               1.2 elap:               0.1
 (Enter /data/home/wyx/g16/l302.exe)
 NPDir=0 NMtPBC=     1 NCelOv=     1 NCel=       1 NClECP=     1 NCelD=      1
         NCelK=      1 NCelE2=     1 NClLst=     1 CellRange=     0.0.
 One-electron integrals computed using PRISM.
 NBasis=   356 RedAO= T EigKep=  4.74D-05  NBF=   356
 NBsUse=   356 1.00D-06 EigRej= -1.00D+00 NBFU=   356
 Precomputing XC quadrature grid using
 IXCGrd= 4 IRadAn=           5 IRanWt=          -1 IRanGd=           0 AccXCQ= 0.00D+00.
 Generated NRdTot=       0 NPtTot=           0 NUsed=           0 NTot=          32
 NSgBfM=   366   366   366   366   366 MxSgAt=    29 MxSgA2=    29.
 Leave Link  302 at Tue Jan 20 18:45:44 2026, MaxMem=  2147483648 cpu:               6.2 elap:               0.2
 (Enter /data/home/wyx/g16/l303.exe)
 DipDrv:  MaxL=1.
 Leave Link  303 at Tue Jan 20 18:45:44 2026, MaxMem=  2147483648 cpu:               1.1 elap:               0.1
 (Enter /data/home/wyx/g16/l308.exe)
 Leave Link  308 at Tue Jan 20 18:45:44 2026, MaxMem=  2147483648 cpu:               1.3 elap:               0.1
 (Enter /data/home/wyx/g16/l401.exe)
 Initial guess from the checkpoint file:  "DDL-S1-opt-freq.chk"
 B after Tr=    -2.894256   21.180700    0.697544
         Rot=    0.983643    0.022921    0.054019   -0.170300 Ang=  20.75 deg.
 Guess basis will be translated and rotated to current coordinates.
 JPrj=2 DoOrth=T DoCkMO=T.
 Leave Link  401 at Tue Jan 20 18:45:44 2026, MaxMem=  2147483648 cpu:               4.5 elap:               0.2
 (Enter /data/home/wyx/g16/l502.exe)
 Two-electron integral symmetry not used.
 Closed shell SCF:
 Using DIIS extrapolation, IDIIS=  1040.
 NGot=  2147483648 LenX=  2147195087 LenY=  2147057746
 Requested convergence on RMS density matrix=1.00D-08 within 128 cycles.
 Requested convergence on MAX density matrix=1.00D-06.
 Requested convergence on             energy=1.00D-06.
 No special actions if energy rises.
 Fock matrices will be formed incrementally for  20 cycles.

 Cycle   1  Pass 1  IDiag  1:
 FoFJK:  IHMeth= 1 ICntrl=       0 DoSepK=T KAlg= 0 I1Cent=           0 FoldK=F
 IRaf=         1 NMat=       1 IRICut=       1 DoRegI=T DoRafI=F ISym2E= 0 IDoP0=0 IntGTp=1.
 FoFCou: FMM=F IPFlag=           0 FMFlag=      100000 FMFlg1=           0
         NFxFlg=           0 DoJE=T BraDBF=F KetDBF=F FulRan=T
         wScrn=  0.000000 ICntrl=       500 IOpCl=  0 I1Cent=           0 NGrid=           0
         NMat0=    1 NMatS0=      1 NMatT0=    0 NMatD0=    1 NMtDS0=    0 NMtDT0=    0
 Symmetry not used in FoFCou.
 Inv3:  Mode=1 IEnd=    13091763.
 Iteration    1 A*A^-1 deviation from unit magnitude is 3.55D-15 for    233.
 Iteration    1 A*A^-1 deviation from orthogonality  is 2.43D-15 for   1779    201.
 Iteration    1 A^-1*A deviation from unit magnitude is 3.33D-15 for    233.
 Iteration    1 A^-1*A deviation from orthogonality  is 2.11D-15 for   1903    116.
 E= -633.328921632933    
 DIIS: error= 5.51D-06 at cycle   1 NSaved=   1.
 NSaved= 1 IEnMin= 1 EnMin= -633.328921632933     IErMin= 1 ErrMin= 5.51D-06
 ErrMax= 5.51D-06  0.00D+00 EMaxC= 1.00D-01 BMatC= 1.32D-08 BMatP= 1.32D-08
 IDIUse=1 WtCom= 1.00D+00 WtEn= 0.00D+00
 Coeff-Com:  0.100D+01
 Coeff:      0.100D+01
 Gap=     0.241 Goal=   None    Shift=    0.000
 RMSDP=5.04D-06 MaxDP=2.55D-04              OVMax= 8.16D-05

 Cycle   2  Pass 1  IDiag  1:
 RMSU=  5.00D-06    CP:  1.00D+00
 E= -633.328921656488     Delta-E=       -0.000000023556 Rises=F Damp=F
 DIIS: error= 4.37D-06 at cycle   2 NSaved=   2.
 NSaved= 2 IEnMin= 2 EnMin= -633.328921656488     IErMin= 2 ErrMin= 4.37D-06
 ErrMax= 4.37D-06  0.00D+00 EMaxC= 1.00D-01 BMatC= 9.52D-09 BMatP= 1.32D-08
 IDIUse=1 WtCom= 1.00D+00 WtEn= 0.00D+00
 Coeff-Com:  0.436D+00 0.564D+00
 Coeff:      0.436D+00 0.564D+00
 Gap=     0.241 Goal=   None    Shift=    0.000
 RMSDP=1.23D-06 MaxDP=6.78D-05 DE=-2.36D-08 OVMax= 2.62D-05

 Cycle   3  Pass 1  IDiag  1:
 RMSU=  1.13D-06    CP:  1.00D+00  1.01D+00
 E= -633.328921663232     Delta-E=       -0.000000006744 Rises=F Damp=F
 DIIS: error= 2.38D-06 at cycle   3 NSaved=   3.
 NSaved= 3 IEnMin= 3 EnMin= -633.328921663232     IErMin= 3 ErrMin= 2.38D-06
 ErrMax= 2.38D-06  0.00D+00 EMaxC= 1.00D-01 BMatC= 1.91D-09 BMatP= 9.52D-09
 IDIUse=1 WtCom= 1.00D+00 WtEn= 0.00D+00
 Coeff-Com: -0.803D-03 0.294D+00 0.707D+00
 Coeff:     -0.803D-03 0.294D+00 0.707D+00
 Gap=     0.241 Goal=   None    Shift=    0.000
 RMSDP=3.95D-07 MaxDP=2.44D-05 DE=-6.74D-09 OVMax= 1.46D-05

 Cycle   4  Pass 1  IDiag  1:
 RMSU=  2.24D-07    CP:  1.00D+00  1.06D+00  1.14D+00
 E= -633.328921664885     Delta-E=       -0.000000001653 Rises=F Damp=F
 DIIS: error= 4.85D-07 at cycle   4 NSaved=   4.
 NSaved= 4 IEnMin= 4 EnMin= -633.328921664885     IErMin= 4 ErrMin= 4.85D-07
 ErrMax= 4.85D-07  0.00D+00 EMaxC= 1.00D-01 BMatC= 1.08D-10 BMatP= 1.91D-09
 IDIUse=1 WtCom= 1.00D+00 WtEn= 0.00D+00
 Coeff-Com: -0.263D-01 0.483D-01 0.224D+00 0.754D+00
 Coeff:     -0.263D-01 0.483D-01 0.224D+00 0.754D+00
 Gap=     0.241 Goal=   None    Shift=    0.000
 RMSDP=1.94D-07 MaxDP=1.17D-05 DE=-1.65D-09 OVMax= 4.74D-06

 Cycle   5  Pass 1  IDiag  1:
 RMSU=  9.75D-08    CP:  1.00D+00  1.08D+00  1.27D+00  1.07D+00
 E= -633.328921664990     Delta-E=       -0.000000000105 Rises=F Damp=F
 DIIS: error= 2.27D-07 at cycle   5 NSaved=   5.
 NSaved= 5 IEnMin= 5 EnMin= -633.328921664990     IErMin= 5 ErrMin= 2.27D-07
 ErrMax= 2.27D-07  0.00D+00 EMaxC= 1.00D-01 BMatC= 3.14D-11 BMatP= 1.08D-10
 IDIUse=1 WtCom= 1.00D+00 WtEn= 0.00D+00
 Coeff-Com: -0.108D-01-0.223D-01 0.794D-02 0.373D+00 0.652D+00
 Coeff:     -0.108D-01-0.223D-01 0.794D-02 0.373D+00 0.652D+00
 Gap=     0.241 Goal=   None    Shift=    0.000
 RMSDP=6.21D-08 MaxDP=3.09D-06 DE=-1.05D-10 OVMax= 1.30D-06

 Cycle   6  Pass 1  IDiag  1:
 RMSU=  2.25D-08    CP:  1.00D+00  1.08D+00  1.31D+00  1.15D+00  1.04D+00
 E= -633.328921665020     Delta-E=       -0.000000000031 Rises=F Damp=F
 DIIS: error= 8.28D-08 at cycle   6 NSaved=   6.
 NSaved= 6 IEnMin= 6 EnMin= -633.328921665020     IErMin= 6 ErrMin= 8.28D-08
 ErrMax= 8.28D-08  0.00D+00 EMaxC= 1.00D-01 BMatC= 2.44D-12 BMatP= 3.14D-11
 IDIUse=1 WtCom= 1.00D+00 WtEn= 0.00D+00
 Coeff-Com: -0.337D-03-0.162D-01-0.169D-01 0.463D-01 0.214D+00 0.773D+00
 Coeff:     -0.337D-03-0.162D-01-0.169D-01 0.463D-01 0.214D+00 0.773D+00
 Gap=     0.241 Goal=   None    Shift=    0.000
 RMSDP=2.82D-08 MaxDP=1.45D-06 DE=-3.06D-11 OVMax= 1.05D-06

 Cycle   7  Pass 1  IDiag  1:
 RMSU=  8.92D-09    CP:  1.00D+00  1.08D+00  1.33D+00  1.17D+00  1.14D+00
                    CP:  1.09D+00
 E= -633.328921665016     Delta-E=        0.000000000004 Rises=F Damp=F
 DIIS: error= 4.66D-08 at cycle   7 NSaved=   7.
 NSaved= 7 IEnMin= 6 EnMin= -633.328921665020     IErMin= 7 ErrMin= 4.66D-08
 ErrMax= 4.66D-08  0.00D+00 EMaxC= 1.00D-01 BMatC= 7.95D-13 BMatP= 2.44D-12
 IDIUse=1 WtCom= 1.00D+00 WtEn= 0.00D+00
 Coeff-Com:  0.170D-02-0.598D-02-0.720D-02-0.401D-01-0.135D-01 0.382D+00
 Coeff-Com:  0.683D+00
 Coeff:      0.170D-02-0.598D-02-0.720D-02-0.401D-01-0.135D-01 0.382D+00
 Coeff:      0.683D+00
 Gap=     0.241 Goal=   None    Shift=    0.000
 RMSDP=1.11D-08 MaxDP=5.17D-07 DE= 3.87D-12 OVMax= 3.41D-07

 Cycle   8  Pass 1  IDiag  1:
 RMSU=  3.73D-09    CP:  1.00D+00  1.08D+00  1.34D+00  1.17D+00  1.17D+00
                    CP:  1.20D+00  1.03D+00
 E= -633.328921665025     Delta-E=       -0.000000000009 Rises=F Damp=F
 DIIS: error= 1.20D-08 at cycle   8 NSaved=   8.
 NSaved= 8 IEnMin= 8 EnMin= -633.328921665025     IErMin= 8 ErrMin= 1.20D-08
 ErrMax= 1.20D-08  0.00D+00 EMaxC= 1.00D-01 BMatC= 6.13D-14 BMatP= 7.95D-13
 IDIUse=1 WtCom= 1.00D+00 WtEn= 0.00D+00
 Coeff-Com:  0.475D-03-0.350D-03 0.175D-02-0.151D-01-0.351D-01-0.852D-02
 Coeff-Com:  0.140D+00 0.917D+00
 Coeff:      0.475D-03-0.350D-03 0.175D-02-0.151D-01-0.351D-01-0.852D-02
 Coeff:      0.140D+00 0.917D+00
 Gap=     0.241 Goal=   None    Shift=    0.000
 RMSDP=4.06D-09 MaxDP=2.48D-07 DE=-8.53D-12 OVMax= 2.02D-07

 Error on total polarization charges =  0.01464
 SCF Done:  E(RCAM-B3LYP) =  -633.328921665     A.U. after    8 cycles
            NFock=  8  Conv=0.41D-08     -V/T= 2.0042
 KE= 6.307043052469D+02 PE=-3.277491088981D+03 EE= 1.112755664274D+03
 Leave Link  502 at Tue Jan 20 18:46:06 2026, MaxMem=  2147483648 cpu:             676.7 elap:              21.6
 (Enter /data/home/wyx/g16/l801.exe)
 DoSCS=F DFT=T ScalE2(SS,OS)=  1.000000  1.000000
 ExpMin= 9.52D-02 ExpMax= 2.70D+04 ExpMxC= 9.22D+02 IAcc=3 IRadAn=         5 AccDes= 0.00D+00
 HarFok:  IExCor=  205 AccDes= 0.00D+00 IRadAn=         5 IDoV=-2 UseB2=F ITyADJ=14
 ICtDFT= 12500011 ScaDFX=  1.000000  1.000000  1.000000  1.000000
 Largest valence mixing into a core orbital is  5.65D-05
 Largest core mixing into a valence orbital is  1.21D-05
 Range of M.O.s used for correlation:    15   356
 NBasis=   356 NAE=    52 NBE=    52 NFC=    14 NFV=     0
 NROrb=    342 NOA=    38 NOB=    38 NVA=   304 NVB=   304

 **** Warning!!: The largest alpha MO coefficient is  0.49909054D+02

 Leave Link  801 at Tue Jan 20 18:46:06 2026, MaxMem=  2147483648 cpu:               1.6 elap:               0.1
 (Enter /data/home/wyx/g16/l914.exe)
 RHF ground state
 Two-electron integral symmetry not used.
 MDV=  2147483648 DFT=T DoStab=F Mixed=T DoRPA=T DoScal=F NonHer=T
 NEqPCM:  Using equilibrium solvation (IEInf=0, Eps=   7.4257, EpsInf=   1.9740)
 Making orbital integer symmetry assigments:
    24 initial guesses have been made.
 Convergence on wavefunction:    0.000001000000000
 Davidson Disk Diagonalization:  ConvIn= 1.00D-06 SkipCon=T Conv= 1.00D-06.
 Max sub-space:  2000 roots to seek:    24 dimension of matrix:        23104
 Iteration     1 Dimension    24 NMult     0 NNew     24
 CISAX will form    24 AO SS matrices at one time.
 NMat=    24 NSing=    24 JSym2X= 0.
 FoFJK:  IHMeth= 1 ICntrl=       0 DoSepK=T KAlg= 0 I1Cent=           0 FoldK=F
 IRaf=         1 NMat=      48 IRICut=       1 DoRegI=T DoRafI=F ISym2E= 0 IDoP0=3 IntGTp=3.
 FoFCou: FMM=F IPFlag=           0 FMFlag=      100000 FMFlg1=           0
         NFxFlg=           0 DoJE=F BraDBF=F KetDBF=F FulRan=T
         wScrn=  0.000000 ICntrl=       500 IOpCl=  0 I1Cent=           0 NGrid=           0
         NMat0=   24 NMatS0=     24 NMatT0=    0 NMatD0=   24 NMtDS0=    0 NMtDT0=    0
 Symmetry not used in FoFCou.
 New state      2 was old state      3
 New state      3 was old state      4
 New state      4 was old state      2
 New state      5 was old state      6
 New state      6 was old state      5
 Excitation Energies [eV] at current iteration:
 Root      1 :     3.950989750635705
 Root      2 :     4.353184848268692
 Root      3 :     4.534086707921935
 Root      4 :     5.556981097580506
 Root      5 :     6.194369340884371
 Root      6 :     6.369042594154986
 Root      7 :     6.759908423764109
 Root      8 :     6.793990173162888
 Root      9 :     7.023021377188925
 Root     10 :     7.096818571189500
 Root     11 :     7.227447130402552
 Root     12 :     7.469401611222363
 Root     13 :     7.618580719308049
 Root     14 :     7.699016071753828
 Root     15 :     7.782035673528245
 Root     16 :     8.028112363796568
 Root     17 :     8.129889509142798
 Root     18 :     8.265593280486451
 Root     19 :     8.296757380625921
 Root     20 :     8.593214079343637
 Root     21 :     8.684450167630084
 Root     22 :     8.960572365121282
 Root     23 :     9.031380563174896
 Root     24 :     9.141795034198754
 Iteration     2 Dimension    36 NMult    24 NNew     12
 CISAX will form    12 AO SS matrices at one time.
 NMat=    12 NSing=    12 JSym2X= 0.
 Root      1 not converged, maximum delta is    0.048834679522620
 Root      2 not converged, maximum delta is    0.072831001455345
 Root      3 not converged, maximum delta is    0.091350606057840
 Root      4 not converged, maximum delta is    0.339772867153322
 New state      5 was old state      6
 Root      5 not converged, maximum delta is    0.390858628292523
 New state      6 was old state      5
 Root      6 not converged, maximum delta is    0.273258579163186
 Excitation Energies [eV] at current iteration:
 Root      1 :     3.529986841942968   Change is   -0.421002908692736
 Root      2 :     4.112102012029042   Change is   -0.241082836239650
 Root      3 :     4.256377255879630   Change is   -0.277709452042305
 Root      4 :     5.144118984872277   Change is   -0.412862112708229
 Root      5 :     5.622340987288777   Change is   -0.746701606866208
 Root      6 :     6.079954655226253   Change is   -0.114414685658118
 Iteration     3 Dimension    48 NMult    36 NNew     12
 CISAX will form    12 AO SS matrices at one time.
 NMat=    12 NSing=    12 JSym2X= 0.
 Root      1 not converged, maximum delta is    0.007793205219056
 Root      2 not converged, maximum delta is    0.013222824160962
 Root      3 not converged, maximum delta is    0.013413081015497
 Root      4 not converged, maximum delta is    0.013193650660914
 Root      5 not converged, maximum delta is    0.013287676317232
 Root      6 not converged, maximum delta is    0.018714347650000
 Excitation Energies [eV] at current iteration:
 Root      1 :     3.514979913255160   Change is   -0.015006928687808
 Root      2 :     4.098482186270073   Change is   -0.013619825758969
 Root      3 :     4.242201592948267   Change is   -0.014175662931362
 Root      4 :     5.123179495415863   Change is   -0.020939489456413
 Root      5 :     5.604621716037184   Change is   -0.017719271251594
 Root      6 :     6.069161091498990   Change is   -0.010793563727263
 Iteration     4 Dimension    60 NMult    48 NNew     12
 CISAX will form    12 AO SS matrices at one time.
 NMat=    12 NSing=    12 JSym2X= 0.
 Root      1 not converged, maximum delta is    0.002080470870805
 Root      2 not converged, maximum delta is    0.002126296176795
 Root      3 not converged, maximum delta is    0.002157036190058
 Root      4 not converged, maximum delta is    0.003141961243107
 Root      5 not converged, maximum delta is    0.002477271867623
 Root      6 not converged, maximum delta is    0.003596370422997
 Excitation Energies [eV] at current iteration:
 Root      1 :     3.513729218064682   Change is   -0.001250695190477
 Root      2 :     4.097613375720988   Change is   -0.000868810549084
 Root      3 :     4.241381179580197   Change is   -0.000820413368071
 Root      4 :     5.121580397924718   Change is   -0.001599097491146
 Root      5 :     5.603020633840182   Change is   -0.001601082197002
 Root      6 :     6.068428619306550   Change is   -0.000732472192440
 Iteration     5 Dimension    72 NMult    60 NNew     12
 CISAX will form    12 AO SS matrices at one time.
 NMat=    12 NSing=    12 JSym2X= 0.
 Root      1 not converged, maximum delta is    0.000470370124230
 Root      2 not converged, maximum delta is    0.000309372248973
 Root      3 not converged, maximum delta is    0.000517484745194
 Root      4 not converged, maximum delta is    0.000721905122789
 Root      5 not converged, maximum delta is    0.001019988197992
 Root      6 not converged, maximum delta is    0.000935410642708
 Excitation Energies [eV] at current iteration:
 Root      1 :     3.513667318806654   Change is   -0.000061899258029
 Root      2 :     4.097569148000045   Change is   -0.000044227720944
 Root      3 :     4.241336134203727   Change is   -0.000045045376470
 Root      4 :     5.121434521845377   Change is   -0.000145876079342
 Root      5 :     5.602863498196093   Change is   -0.000157135644090
 Root      6 :     6.068379225702646   Change is   -0.000049393603903
 Iteration     6 Dimension    84 NMult    72 NNew     12
 CISAX will form    12 AO SS matrices at one time.
 NMat=    12 NSing=    12 JSym2X= 0.
 Root      1 not converged, maximum delta is    0.000124923297236
 Root      2 not converged, maximum delta is    0.000085537704474
 Root      3 not converged, maximum delta is    0.000147185084727
 Root      4 not converged, maximum delta is    0.000383265448623
 Root      5 not converged, maximum delta is    0.000246984359636
 Root      6 not converged, maximum delta is    0.000222721659473
 Excitation Energies [eV] at current iteration:
 Root      1 :     3.513664070945807   Change is   -0.000003247860846
 Root      2 :     4.097566256434776   Change is   -0.000002891565269
 Root      3 :     4.241333611154611   Change is   -0.000002523049116
 Root      4 :     5.121424442049554   Change is   -0.000010079795822
 Root      5 :     5.602853484184214   Change is   -0.000010014011878
 Root      6 :     6.068375436385340   Change is   -0.000003789317307
 Iteration     7 Dimension    96 NMult    84 NNew     12
 CISAX will form    12 AO SS matrices at one time.
 NMat=    12 NSing=    12 JSym2X= 0.
 Root      1 not converged, maximum delta is    0.000016364363873
 Root      2 not converged, maximum delta is    0.000014471536506
 Root      3 not converged, maximum delta is    0.000031614785132
 Root      4 not converged, maximum delta is    0.000102602951586
 Root      5 not converged, maximum delta is    0.000079362279961
 Root      6 not converged, maximum delta is    0.000105917941034
 Excitation Energies [eV] at current iteration:
 Root      1 :     3.513663912260092   Change is   -0.000000158685715
 Root      2 :     4.097566084844430   Change is   -0.000000171590346
 Root      3 :     4.241333476784812   Change is   -0.000000134369800
 Root      4 :     5.121423590204996   Change is   -0.000000851844558
 Root      5 :     5.602852748409830   Change is   -0.000000735774384
 Root      6 :     6.068375053723560   Change is   -0.000000382661779
 Iteration     8 Dimension   108 NMult    96 NNew     12
 CISAX will form    12 AO SS matrices at one time.
 NMat=    12 NSing=    12 JSym2X= 0.
 Root      1 not converged, maximum delta is    0.000002649995689
 Root      2 not converged, maximum delta is    0.000002797460118
 Root      3 not converged, maximum delta is    0.000003733668449
 Root      4 not converged, maximum delta is    0.000017018796416
 Root      5 not converged, maximum delta is    0.000015837035424
 Root      6 not converged, maximum delta is    0.000027702045615
 Excitation Energies [eV] at current iteration:
 Root      1 :     3.513663906600029   Change is   -0.000000005660063
 Root      2 :     4.097566077192623   Change is   -0.000000007651806
 Root      3 :     4.241333470543637   Change is   -0.000000006241175
 Root      4 :     5.121423536822076   Change is   -0.000000053382921
 Root      5 :     5.602852705692373   Change is   -0.000000042717457
 Root      6 :     6.068375017227509   Change is   -0.000000036496052
 Iteration     9 Dimension   120 NMult   108 NNew     12
 CISAX will form    12 AO SS matrices at one time.
 NMat=    12 NSing=    12 JSym2X= 0.
 Root      1 has converged.
 Root      2 has converged.
 Root      3 has converged.
 Root      4 not converged, maximum delta is    0.000002672097055
 Root      5 not converged, maximum delta is    0.000002762636727
 Root      6 not converged, maximum delta is    0.000003830920282
 Excitation Energies [eV] at current iteration:
 Root      1 :     3.513663906422754   Change is   -0.000000000177276
 Root      2 :     4.097566076975708   Change is   -0.000000000216916
 Root      3 :     4.241333470343107   Change is   -0.000000000200530
 Root      4 :     5.121423534620457   Change is   -0.000000002201618
 Root      5 :     5.602852703563506   Change is   -0.000000002128868
 Root      6 :     6.068375015079706   Change is   -0.000000002147803
 Iteration    10 Dimension   126 NMult   120 NNew      6
 CISAX will form     6 AO SS matrices at one time.
 NMat=     6 NSing=     6 JSym2X= 0.
 Root      1 has converged.
 Root      2 has converged.
 Root      3 has converged.
 Root      4 has converged.
 Root      5 has converged.
 Root      6 not converged, maximum delta is    0.000001022412802
 Excitation Energies [eV] at current iteration:
 Root      1 :     3.513663906422356   Change is   -0.000000000000398
 Root      2 :     4.097566076975206   Change is   -0.000000000000501
 Root      3 :     4.241333470342078   Change is   -0.000000000001028
 Root      4 :     5.121423534523506   Change is   -0.000000000096952
 Root      5 :     5.602852703455531   Change is   -0.000000000107975
 Root      6 :     6.068375014941093   Change is   -0.000000000138612
 Iteration    11 Dimension   128 NMult   126 NNew      2
 CISAX will form     2 AO SS matrices at one time.
 NMat=     2 NSing=     2 JSym2X= 0.
 Root      1 has converged.
 Root      2 has converged.
 Root      3 has converged.
 Root      4 has converged.
 Root      5 has converged.
 Root      6 has converged.
 Excitation Energies [eV] at current iteration:
 Root      1 :     3.513663906422262   Change is   -0.000000000000094
 Root      2 :     4.097566076975286   Change is    0.000000000000080
 Root      3 :     4.241333470342040   Change is   -0.000000000000039
 Root      4 :     5.121423534523329   Change is   -0.000000000000177
 Root      5 :     5.602852703455119   Change is   -0.000000000000411
 Root      6 :     6.068375014931841   Change is   -0.000000000009252
 Convergence achieved on expansion vectors.
 ***********************************************************************
 Excited states from <AA,BB:AA,BB> singles matrix:
 ***********************************************************************
 
 1PDM for each excited state written to RWF  633
 Ground to excited state transition densities written to RWF  633
 Ground to excited state transition electric dipole moments (Au):
       state          X           Y           Z        Dip. S.      Osc.
         1        -1.5710     -0.3530     -0.1210      2.6072      0.2244
         2        -0.1816     -0.0646      0.0286      0.0380      0.0038
         3        -0.0408      0.1419     -0.0479      0.0241      0.0025
         4         0.3888     -1.7275      0.2395      3.1928      0.4006
         5         0.4248     -1.3881      0.1176      2.1210      0.2911
         6        -0.0583      0.2350      0.0639      0.0627      0.0093
 Ground to excited state transition velocity dipole moments (Au):
       state          X           Y           Z        Dip. S.      Osc.
         1         0.1936      0.0473      0.0136      0.0399      0.2061
         2         0.0260      0.0097     -0.0017      0.0008      0.0034
         3         0.0066     -0.0209      0.0039      0.0005      0.0021
         4        -0.0675      0.3130     -0.0390      0.1040      0.3685
         5        -0.0854      0.2809     -0.0247      0.0868      0.2810
         6         0.0134     -0.0496     -0.0334      0.0038      0.0112
 Ground to excited state transition magnetic dipole moments (Au):
       state          X           Y           Z
         1         0.3228      0.1057     -5.6610
         2         0.8123      0.1309     -0.8955
         3         0.5925     -0.8837     -0.1715
         4        -0.9458     -0.2389      0.6286
         5        -0.5150     -0.1520      1.3093
         6        -0.7275     -0.1171     -0.1353
 Ground to excited state transition velocity quadrupole moments (Au):
       state          XX          YY          ZZ          XY          XZ          YZ
         1        -0.9297      1.7220      0.0361      3.4463      0.1911      0.3021
         2        -0.1069      0.3627     -0.0043      0.4560      0.0222      0.0545
         3        -0.0116     -0.9212      0.0485      0.1691      0.0530      0.0962
         4        -0.7733     13.4505     -0.0487     -2.7611      0.0527     -0.6901
         5        -0.0955     12.2098      0.0223     -2.7115     -0.0064     -0.2788
         6        -0.3418     -2.3162      0.1474      0.4253      0.0809     -0.7006
 <0|del|b> * <b|rxdel|0> + <0|del|b> * <b|delr+rdel|0>
 Rotatory Strengths (R) in cgs (10**-40 erg-esu-cm/Gauss)
       state          XX          YY          ZZ    R(velocity)    E-M Angle
         1       -93.6982     -8.4592     49.3796    -17.5926       90.49
         2         4.2406     58.3237     49.6863     37.4169       44.93
         3        44.3671      7.2151     46.7519     32.7780       25.29
         4       -15.3398    -40.6863    -77.0509    -44.3590       95.43
         5       -10.8081    -54.0516    -41.7574    -35.5390       94.27
         6         0.2247     -0.7798      2.2687      0.5712       89.33
 1/2[<0|r|b>*<b|rxdel|0> + (<0|rxdel|b>*<b|r|0>)*]
 Rotatory Strengths (R) in cgs (10**-40 erg-esu-cm/Gauss)
       state          XX          YY          ZZ     R(length)
         1       358.5953     26.3731   -484.3190    -33.1169
         2       104.3064      5.9849     18.1141     42.8018
         3        17.0880     88.6797     -5.8056     33.3207
         4       260.0141   -291.8802   -106.4579    -46.1080
         5       154.6983   -149.2351   -108.9163    -34.4844
         6       -29.9693     19.4614      6.1174     -1.4635
  1/2[<0|del|b>*<b|r|0> + (<0|r|b>*<b|del|0>)*] (Au)
       state          X           Y           Z        Dip. S.   Osc.(frdel)
         1        -0.3042     -0.0167     -0.0016      0.3226      0.2150
         2        -0.0047     -0.0006     -0.0000      0.0054      0.0036
         3        -0.0003     -0.0030     -0.0002      0.0034      0.0023
         4        -0.0262     -0.5407     -0.0093      0.5763      0.3842
         5        -0.0363     -0.3899     -0.0029      0.4290      0.2860
         6        -0.0008     -0.0116     -0.0021      0.0146      0.0097

 Excitation energies and oscillator strengths:
 
 Excited state symmetry could not be determined.
 Excited State   1:      Singlet-?Sym    3.5137 eV  352.86 nm  f=0.2244  <S**2>=0.000
      52 -> 53         0.69752
 This state for optimization and/or second-order correction.
 Total Energy, E(TD-HF/TD-DFT) =  -633.199796892    
 Copying the excited state density for this state as the 1-particle RhoCI density.
 
 Excited state symmetry could not be determined.
 Excited State   2:      Singlet-?Sym    4.0976 eV  302.58 nm  f=0.0038  <S**2>=0.000
      50 -> 54         0.19496
      51 -> 53         0.55613
      51 -> 54         0.33448
 
 Excited state symmetry could not be determined.
 Excited State   3:      Singlet-?Sym    4.2413 eV  292.32 nm  f=0.0025  <S**2>=0.000
      49 -> 53         0.20095
      49 -> 54        -0.14368
      50 -> 53         0.53256
      50 -> 54        -0.26792
      50 -> 58         0.11185
      51 -> 54         0.20986
 
 Excited state symmetry could not be determined.
 Excited State   4:      Singlet-?Sym    5.1214 eV  242.09 nm  f=0.4006  <S**2>=0.000
      52 -> 54         0.69181
 
 Excited state symmetry could not be determined.
 Excited State   5:      Singlet-?Sym    5.6029 eV  221.29 nm  f=0.2911  <S**2>=0.000
      49 -> 53         0.62703
      50 -> 53        -0.23390
      51 -> 53         0.14738
 
 Excited state symmetry could not be determined.
 Excited State   6:      Singlet-?Sym    6.0684 eV  204.31 nm  f=0.0093  <S**2>=0.000
      52 -> 55         0.66177
      52 -> 56         0.13750
 SavETr:  write IOETrn=   770 NScale= 10 NData=  16 NLR=1 NState=    6 LETran=     118.
 The selected state is a singlet.
 CISGrd: IGrad=2 NXY=2 DFT=T
 CISAX will form     1 AO SS matrices at one time.
 NMat=     1 NSing=     1 JSym2X= 0.
 GePol: Maximum number of non-zero 1st derivatives   =     195
 Leave Link  914 at Tue Jan 20 18:49:56 2026, MaxMem=  2147483648 cpu:            7332.9 elap:             230.1
 (Enter /data/home/wyx/g16/l1002.exe)
 Minotr:  Closed shell wavefunction.
          Computing CIS/TDA/TD derivatives.
          Using Z-Vector for PSCF gradient.
          Skipping F1 and S1 gradient terms here.
          IDoAtm=11111111111111111111111111111
 NEqPCM:  Using equilibrium solvation (IEInf=0, Eps=   7.4257, EpsInf=   1.9740)
          Frozen-core window.
          Direct CPHF calculation.
          Differentiating once with respect to electric field.
                with respect to dipole field.
          Differentiating once with respect to nuclear coordinates.
          Requested convergence is 1.0D-10 RMS, and 1.0D-09 maximum.
          NewPWx=F KeepS1=T KeepF1=T KeepIn=T MapXYZ=F SortEE=F KeepMc=T.
 Two-electron integral symmetry not used.
          MDV=    2147483648 using IRadAn=       5.
          Solving linear equations separately, MaxMat=     384.
          There are     1 degrees of freedom in the 1st order CPHF.  IDoFFX=0 NUNeed=     1.
 FoFJK:  IHMeth= 1 ICntrl=       0 DoSepK=T KAlg= 0 I1Cent=           0 FoldK=F
 IRaf=         1 NMat=       1 IRICut=       1 DoRegI=T DoRafI=F ISym2E= 0 IDoP0=0 IntGTp=1.
 FoFCou: FMM=F IPFlag=           0 FMFlag=      100000 FMFlg1=           0
         NFxFlg=           0 DoJE=T BraDBF=F KetDBF=F FulRan=T
         wScrn=  0.000000 ICntrl=       500 IOpCl=  0 I1Cent=           0 NGrid=           0
         NMat0=    1 NMatS0=      1 NMatT0=    0 NMatD0=    1 NMtDS0=    0 NMtDT0=    0
 Symmetry not used in FoFCou.
 LinEq1:  Iter=  0 NonCon=     1 RMS=3.59D-03 Max=1.77D-01 NDo=     1
 AX will form     1 AO Fock derivatives at one time.
 LinEq1:  Iter=  1 NonCon=     1 RMS=1.45D-03 Max=8.42D-02 NDo=     1
 LinEq1:  Iter=  2 NonCon=     1 RMS=7.26D-04 Max=3.86D-02 NDo=     1
 LinEq1:  Iter=  3 NonCon=     1 RMS=3.76D-04 Max=1.83D-02 NDo=     1
 LinEq1:  Iter=  4 NonCon=     1 RMS=1.76D-04 Max=5.76D-03 NDo=     1
 LinEq1:  Iter=  5 NonCon=     1 RMS=9.28D-05 Max=3.12D-03 NDo=     1
 LinEq1:  Iter=  6 NonCon=     1 RMS=5.98D-05 Max=2.26D-03 NDo=     1
 LinEq1:  Iter=  7 NonCon=     1 RMS=2.37D-05 Max=1.33D-03 NDo=     1
 LinEq1:  Iter=  8 NonCon=     1 RMS=1.05D-05 Max=3.85D-04 NDo=     1
 LinEq1:  Iter=  9 NonCon=     1 RMS=5.01D-06 Max=2.08D-04 NDo=     1
 LinEq1:  Iter= 10 NonCon=     1 RMS=2.17D-06 Max=4.70D-05 NDo=     1
 LinEq1:  Iter= 11 NonCon=     1 RMS=1.35D-06 Max=5.00D-05 NDo=     1
 LinEq1:  Iter= 12 NonCon=     1 RMS=7.44D-07 Max=1.44D-05 NDo=     1
 LinEq1:  Iter= 13 NonCon=     1 RMS=2.91D-07 Max=5.59D-06 NDo=     1
 LinEq1:  Iter= 14 NonCon=     1 RMS=1.17D-07 Max=2.92D-06 NDo=     1
 LinEq1:  Iter= 15 NonCon=     1 RMS=6.63D-08 Max=1.65D-06 NDo=     1
 LinEq1:  Iter= 16 NonCon=     1 RMS=2.10D-08 Max=5.37D-07 NDo=     1
 LinEq1:  Iter= 17 NonCon=     1 RMS=6.47D-09 Max=2.23D-07 NDo=     1
 LinEq1:  Iter= 18 NonCon=     1 RMS=3.27D-09 Max=9.95D-08 NDo=     1
 LinEq1:  Iter= 19 NonCon=     1 RMS=1.32D-09 Max=4.33D-08 NDo=     1
 LinEq1:  Iter= 20 NonCon=     1 RMS=4.30D-10 Max=1.00D-08 NDo=     1
 LinEq1:  Iter= 21 NonCon=     1 RMS=1.90D-10 Max=3.24D-09 NDo=     1
 LinEq1:  Iter= 22 NonCon=     1 RMS=6.81D-11 Max=1.64D-09 NDo=     1
 LinEq1:  Iter= 23 NonCon=     0 RMS=1.70D-11 Max=4.74D-10 NDo=     1
 Linear equations converged to 1.000D-10 1.000D-09 after    23 iterations.
 End of Minotr F.D. properties file   721 does not exist.
 End of Minotr F.D. properties file   722 does not exist.
 End of Minotr F.D. properties file   788 does not exist.
 Leave Link 1002 at Tue Jan 20 18:51:25 2026, MaxMem=  2147483648 cpu:            2777.5 elap:              87.5
 (Enter /data/home/wyx/g16/l601.exe)
 Copying SCF densities to generalized density rwf, IOpCl= 0 IROHF=0.

 **********************************************************************

            Population analysis using the SCF density.

 **********************************************************************

 Alpha  occ. eigenvalues --  -19.17883 -19.17397 -14.44044 -10.33466 -10.33067
 Alpha  occ. eigenvalues --  -10.31940 -10.31378 -10.25930 -10.25055 -10.24840
 Alpha  occ. eigenvalues --  -10.24814 -10.24491 -10.24285 -10.23758  -1.12100
 Alpha  occ. eigenvalues --   -1.11598  -1.07369  -0.91189  -0.90187  -0.83784
 Alpha  occ. eigenvalues --   -0.82495  -0.81563  -0.78462  -0.74003  -0.71014
 Alpha  occ. eigenvalues --   -0.68537  -0.61509  -0.58168  -0.56737  -0.55155
 Alpha  occ. eigenvalues --   -0.54509  -0.53968  -0.52566  -0.51910  -0.50740
 Alpha  occ. eigenvalues --   -0.50014  -0.49485  -0.49097  -0.48605  -0.48129
 Alpha  occ. eigenvalues --   -0.46855  -0.45344  -0.45076  -0.43376  -0.43062
 Alpha  occ. eigenvalues --   -0.42394  -0.42058  -0.41994  -0.32810  -0.32215
 Alpha  occ. eigenvalues --   -0.31215  -0.26259
 Alpha virt. eigenvalues --   -0.02129   0.02484   0.06309   0.08095   0.08545
 Alpha virt. eigenvalues --    0.10085   0.10730   0.11960   0.12630   0.13496
 Alpha virt. eigenvalues --    0.14289   0.14872   0.15625   0.16044   0.16884
 Alpha virt. eigenvalues --    0.17473   0.17824   0.17885   0.18133   0.19175
 Alpha virt. eigenvalues --    0.19889   0.22015   0.22592   0.23458   0.23580
 Alpha virt. eigenvalues --    0.23900   0.24820   0.25513   0.25904   0.26372
 Alpha virt. eigenvalues --    0.26839   0.27166   0.28745   0.29169   0.30125
 Alpha virt. eigenvalues --    0.31558   0.31944   0.32783   0.33579   0.34238
 Alpha virt. eigenvalues --    0.35443   0.35799   0.36788   0.37997   0.38990
 Alpha virt. eigenvalues --    0.40201   0.40888   0.41765   0.42287   0.42723
 Alpha virt. eigenvalues --    0.43934   0.44102   0.45407   0.45943   0.46158
 Alpha virt. eigenvalues --    0.47174   0.47659   0.47914   0.48336   0.48947
 Alpha virt. eigenvalues --    0.49414   0.50254   0.50619   0.51282   0.51631
 Alpha virt. eigenvalues --    0.52876   0.53105   0.53338   0.54164   0.54455
 Alpha virt. eigenvalues --    0.54510   0.55840   0.56202   0.56670   0.58016
 Alpha virt. eigenvalues --    0.58514   0.59133   0.60484   0.61141   0.62243
 Alpha virt. eigenvalues --    0.63196   0.65470   0.65857   0.66549   0.67898
 Alpha virt. eigenvalues --    0.68566   0.69986   0.71238   0.72311   0.73029
 Alpha virt. eigenvalues --    0.73502   0.73825   0.75012   0.76178   0.77518
 Alpha virt. eigenvalues --    0.78173   0.79789   0.81725   0.83553   0.84182
 Alpha virt. eigenvalues --    0.89192   0.93038   0.98718   0.99951   1.24922
 Alpha virt. eigenvalues --    1.25855   1.27233   1.27496   1.29310   1.31646
 Alpha virt. eigenvalues --    1.32359   1.32981   1.34001   1.35309   1.35886
 Alpha virt. eigenvalues --    1.36524   1.37042   1.38038   1.39269   1.39849
 Alpha virt. eigenvalues --    1.39962   1.40212   1.41144   1.41664   1.41789
 Alpha virt. eigenvalues --    1.43154   1.44074   1.44790   1.45225   1.46813
 Alpha virt. eigenvalues --    1.48103   1.48867   1.49549   1.50612   1.51071
 Alpha virt. eigenvalues --    1.52304   1.52510   1.54251   1.54427   1.57528
 Alpha virt. eigenvalues --    1.58261   1.60445   1.60687   1.61176   1.62177
 Alpha virt. eigenvalues --    1.62469   1.63368   1.64230   1.65229   1.65617
 Alpha virt. eigenvalues --    1.67054   1.67468   1.67733   1.68036   1.68593
 Alpha virt. eigenvalues --    1.68799   1.69865   1.70640   1.72239   1.72450
 Alpha virt. eigenvalues --    1.73117   1.75081   1.75972   1.76800   1.78747
 Alpha virt. eigenvalues --    1.79611   1.83259   1.84387   1.85988   1.86496
 Alpha virt. eigenvalues --    1.86944   1.87180   1.88492   1.88987   1.90743
 Alpha virt. eigenvalues --    1.91542   1.94340   1.95220   1.97907   1.99537
 Alpha virt. eigenvalues --    2.00690   2.03662   2.04237   2.06119   2.09284
 Alpha virt. eigenvalues --    2.11286   2.12858   2.14258   2.16308   2.19301
 Alpha virt. eigenvalues --    2.20379   2.21076   2.21781   2.22452   2.25881
 Alpha virt. eigenvalues --    2.26769   2.27067   2.28759   2.30219   2.31046
 Alpha virt. eigenvalues --    2.32648   2.34660   2.35941   2.36062   2.37755
 Alpha virt. eigenvalues --    2.39430   2.40074   2.41463   2.43926   2.44656
 Alpha virt. eigenvalues --    2.45766   2.47635   2.49989   2.50333   2.51678
 Alpha virt. eigenvalues --    2.52995   2.53372   2.54877   2.56694   2.58587
 Alpha virt. eigenvalues --    2.58969   2.59836   2.60541   2.61231   2.62476
 Alpha virt. eigenvalues --    2.64336   2.65432   2.66889   2.67693   2.69135
 Alpha virt. eigenvalues --    2.70303   2.71930   2.72709   2.73447   2.74619
 Alpha virt. eigenvalues --    2.75920   2.76574   2.77356   2.78101   2.79343
 Alpha virt. eigenvalues --    2.80690   2.81208   2.82786   2.83510   2.84539
 Alpha virt. eigenvalues --    2.85552   2.85845   2.87497   2.90480   2.91640
 Alpha virt. eigenvalues --    2.97774   3.00075   3.01211   3.03302   3.09942
 Alpha virt. eigenvalues --    3.11933   3.15054   3.16278   3.16795   3.19981
 Alpha virt. eigenvalues --    3.20514   3.22188   3.25258   3.26632   3.27009
 Alpha virt. eigenvalues --    3.27682   3.29368   3.33269   3.34809   3.36415
 Alpha virt. eigenvalues --    3.36939   3.38635   3.39640   3.40044   3.41338
 Alpha virt. eigenvalues --    3.42581   3.44556   3.45344   3.46334   3.47862
 Alpha virt. eigenvalues --    3.48079   3.49165   3.55139   3.57974   3.59552
 Alpha virt. eigenvalues --    3.60301   3.89572   3.99075   4.34593   4.36059
 Alpha virt. eigenvalues --   21.62821  21.78908  22.08207  22.10988  22.11520
 Alpha virt. eigenvalues --   22.14162  22.15135  22.17755  22.21115  22.25058
 Alpha virt. eigenvalues --   22.30839  31.93382  43.62790  43.65138
          Condensed to atoms (all electrons):
               1          2          3          4          5          6
     1  O    7.935605   0.000000  -0.000246   0.000018   0.015511   0.018917
     2  O    0.000000   7.965411   0.000458   0.000037  -0.197897   0.000828
     3  N   -0.000246   0.000458   6.411761   0.375840  -0.113116   0.325771
     4  H    0.000018   0.000037   0.375840   0.412310   0.017198  -0.048084
     5  C    0.015511  -0.197897  -0.113116   0.017198   6.911660  -0.047799
     6  C    0.018917   0.000828   0.325771  -0.048084  -0.047799   5.660346
     7  C   -0.000518  -0.029847   0.369485  -0.041529   0.345041  -0.085788
     8  C   -0.000080   0.710671   0.005007  -0.000590  -0.199272   0.023951
     9  C   -0.031535   0.017016   0.015945  -0.000240  -0.419891  -0.152784
    10  H    0.017847  -0.000021  -0.001252   0.000020  -0.102644   0.024568
    11  H    0.002967   0.000073   0.003830   0.000000  -0.032416  -0.014115
    12  C   -0.213804  -0.002099  -0.093170   0.014590   0.119919  -0.201387
    13  C    0.707662  -0.000029  -0.000014   0.000357   0.072573   0.195240
    14  C   -0.000004  -0.011234  -0.036034  -0.008333  -0.068715   0.008575
    15  H   -0.000000   0.004314   0.002214   0.001318   0.018319   0.006564
    16  H   -0.000000   0.001442   0.001812   0.000748  -0.010744  -0.000764
    17  H   -0.000000   0.001215  -0.002940   0.000898  -0.003793  -0.002053
    18  C   -0.000140  -0.105501  -0.000600   0.000020  -0.274703   0.000634
    19  H   -0.000004   0.009466   0.000002  -0.000001   0.024426   0.000030
    20  H    0.000073   0.003262   0.000116   0.000000   0.038953  -0.001011
    21  H    0.000026   0.001211   0.000011  -0.000000   0.005740   0.000246
    22  C   -0.106606   0.000000  -0.000094   0.000118   0.004123  -0.004359
    23  H    0.001118  -0.000000  -0.000045  -0.000017  -0.000104   0.011497
    24  H    0.004637  -0.000000  -0.000099  -0.000050  -0.000543  -0.035704
    25  H    0.007913   0.000000   0.000033  -0.000002  -0.000134  -0.001451
    26  C    0.000906   0.000002  -0.031732  -0.005235   0.000048   0.172044
    27  H   -0.000042  -0.000000  -0.002282   0.000412   0.000395  -0.036146
    28  H   -0.000245   0.000000   0.003547   0.000913   0.000047  -0.044577
    29  H    0.000026  -0.000000  -0.000494   0.000736  -0.000611  -0.049996
               7          8          9         10         11         12
     1  O   -0.000518  -0.000080  -0.031535   0.017847   0.002967  -0.213804
     2  O   -0.029847   0.710671   0.017016  -0.000021   0.000073  -0.002099
     3  N    0.369485   0.005007   0.015945  -0.001252   0.003830  -0.093170
     4  H   -0.041529  -0.000590  -0.000240   0.000020   0.000000   0.014590
     5  C    0.345041  -0.199272  -0.419891  -0.102644  -0.032416   0.119919
     6  C   -0.085788   0.023951  -0.152784   0.024568  -0.014115  -0.201387
     7  C    5.444066  -0.163284  -0.162765   0.018267  -0.003783  -0.005269
     8  C   -0.163284   5.304486   0.065547  -0.009157  -0.004359  -0.026364
     9  C   -0.162765   0.065547   6.195139   0.518744   0.395121   0.076113
    10  H    0.018267  -0.009157   0.518744   0.498671  -0.032336  -0.103364
    11  H   -0.003783  -0.004359   0.395121  -0.032336   0.548871  -0.022703
    12  C   -0.005269  -0.026364   0.076113  -0.103364  -0.022703   7.233448
    13  C    0.009722  -0.004658  -0.256829  -0.001599   0.001594  -0.371509
    14  C    0.254290  -0.039706   0.010533   0.000473  -0.001301  -0.004726
    15  H   -0.072178   0.005576  -0.000153  -0.000002   0.000072  -0.001203
    16  H   -0.029810  -0.007520  -0.000615  -0.000050   0.000186  -0.000084
    17  H   -0.025989  -0.002373   0.000636   0.000050  -0.000067   0.000993
    18  C    0.003104   0.307686   0.002311   0.008624  -0.008504  -0.004701
    19  H    0.000178  -0.052481   0.000268   0.000502  -0.000065  -0.000189
    20  H   -0.000186  -0.059183  -0.009163  -0.004568   0.002041   0.006435
    21  H    0.001643  -0.027196  -0.009621  -0.002789   0.001064  -0.003795
    22  C   -0.000148  -0.000035   0.001589   0.001485   0.001349  -0.254950
    23  H    0.000046   0.000003  -0.001892  -0.000116   0.000135  -0.011450
    24  H    0.000020  -0.000012   0.003366  -0.000096  -0.000109   0.067118
    25  H    0.000007   0.000003   0.000260  -0.000152  -0.000027   0.022702
    26  C    0.001740   0.000349   0.018044   0.000018  -0.000741  -0.073604
    27  H   -0.000734  -0.000008  -0.000108   0.000041  -0.000025  -0.020456
    28  H   -0.000825   0.000002  -0.000887   0.000002  -0.000097  -0.008331
    29  H    0.003886  -0.000005  -0.000514  -0.000009   0.000113   0.024534
              13         14         15         16         17         18
     1  O    0.707662  -0.000004  -0.000000  -0.000000  -0.000000  -0.000140
     2  O   -0.000029  -0.011234   0.004314   0.001442   0.001215  -0.105501
     3  N   -0.000014  -0.036034   0.002214   0.001812  -0.002940  -0.000600
     4  H    0.000357  -0.008333   0.001318   0.000748   0.000898   0.000020
     5  C    0.072573  -0.068715   0.018319  -0.010744  -0.003793  -0.274703
     6  C    0.195240   0.008575   0.006564  -0.000764  -0.002053   0.000634
     7  C    0.009722   0.254290  -0.072178  -0.029810  -0.025989   0.003104
     8  C   -0.004658  -0.039706   0.005576  -0.007520  -0.002373   0.307686
     9  C   -0.256829   0.010533  -0.000153  -0.000615   0.000636   0.002311
    10  H   -0.001599   0.000473  -0.000002  -0.000050   0.000050   0.008624
    11  H    0.001594  -0.001301   0.000072   0.000186  -0.000067  -0.008504
    12  C   -0.371509  -0.004726  -0.001203  -0.000084   0.000993  -0.004701
    13  C    5.405948  -0.000067  -0.000013  -0.000001  -0.000024   0.000371
    14  C   -0.000067   5.066763   0.382546   0.427568   0.410669   0.001549
    15  H   -0.000013   0.382546   0.583792  -0.027952  -0.026646   0.000307
    16  H   -0.000001   0.427568  -0.027952   0.506204  -0.025938  -0.000271
    17  H   -0.000024   0.410669  -0.026646  -0.025938   0.510295  -0.000123
    18  C    0.000371   0.001549   0.000307  -0.000271  -0.000123   5.362828
    19  H   -0.000014   0.000067  -0.000006   0.000026  -0.000017   0.390138
    20  H    0.000408   0.000053  -0.000017  -0.000040   0.000007   0.380818
    21  H   -0.000011  -0.000284  -0.000007   0.000030  -0.000007   0.396093
    22  C    0.278523  -0.000026   0.000002  -0.000000   0.000000   0.000022
    23  H   -0.021373  -0.000000   0.000000  -0.000000   0.000000  -0.000002
    24  H   -0.090698  -0.000002   0.000000   0.000000   0.000000   0.000003
    25  H   -0.040755   0.000000   0.000000   0.000000  -0.000000  -0.000001
    26  C   -0.052210   0.001445   0.000046   0.000061  -0.000196   0.000028
    27  H    0.006180  -0.000097   0.000001   0.000004  -0.000014  -0.000001
    28  H   -0.005396   0.000096  -0.000012  -0.000001   0.000001  -0.000000
    29  H   -0.000543  -0.000281   0.000129  -0.000005   0.000004   0.000000
              19         20         21         22         23         24
     1  O   -0.000004   0.000073   0.000026  -0.106606   0.001118   0.004637
     2  O    0.009466   0.003262   0.001211   0.000000  -0.000000  -0.000000
     3  N    0.000002   0.000116   0.000011  -0.000094  -0.000045  -0.000099
     4  H   -0.000001   0.000000  -0.000000   0.000118  -0.000017  -0.000050
     5  C    0.024426   0.038953   0.005740   0.004123  -0.000104  -0.000543
     6  C    0.000030  -0.001011   0.000246  -0.004359   0.011497  -0.035704
     7  C    0.000178  -0.000186   0.001643  -0.000148   0.000046   0.000020
     8  C   -0.052481  -0.059183  -0.027196  -0.000035   0.000003  -0.000012
     9  C    0.000268  -0.009163  -0.009621   0.001589  -0.001892   0.003366
    10  H    0.000502  -0.004568  -0.002789   0.001485  -0.000116  -0.000096
[...]
 .00016490,-0.00000030,-0.00005598,0.00008593,-0.00003653,-0.00005579,-
 0.00003378,-0.00041875,-0.00114697,-0.00696949,-0.01128660,0.01499745,
 0.00002867,-0.00004377,0.00000713,-0.00000720,0.00002223,-0.00000249,-
 0.00003343,0.00002483,-0.00001067,-0.00004724,0.00002177,0.00000312,0.
 00001269,-0.00004072,0.00001945,-0.00000181,-0.00001474,-0.00001519,0.
 00000659,-0.00001467,0.00000314,-0.00001188,-0.00002758,-0.00000483,-0
 .06093459,-0.10720972,0.09991162,0.06647782,0.11498067,0.00043134,0.00
 002179,-0.00201860,-0.00025673,0.00001524,-0.00006606,0.00065270,0.000
 17085,0.00014139,0.00004473,0.00000021,-0.00005383,0.00001615,-0.00022
 022,-0.00001176,-0.00052470,0.00004314,-0.00036783,-0.00033431,-0.0000
 7127,0.00004305,0.00035875,0.00006281,0.00016877,-0.00001017,-0.000182
 09,-0.00000431,-0.00016579,0.00001616,-0.00005575,0.00020588,0.0000184
 5,-0.00003652,-0.00008783,0.00102391,-0.00080105,-0.00503809,-0.007242
 98,0.01292985,0.00001763,-0.00003904,-0.00002004,-0.00000481,0.0000142
 6,0.00000023,-0.00003143,0.00002394,-0.00001168,-0.00002577,0.00001660
 ,0.00000012,0.00001750,-0.00000481,0.00002194,0.00000309,-0.00000682,-
 0.00000966,0.00000358,-0.00001757,-0.00000213,-0.00000592,-0.00002731,
 0.00000463,0.08920060,0.09523842,-0.19165378,-0.09835078,-0.10678622,0
 .20747260,-0.00348371,-0.00551130,-0.00040293,0.00003811,0.00003804,0.
 00010216,0.00002592,0.00023177,0.00014324,-0.00002008,-0.00001811,0.00
 004236,0.00013176,0.00002907,-0.00009417,-0.00044812,-0.00025021,-0.00
 032929,-0.00009420,0.00000749,0.00007445,0.00001492,-0.00011755,-0.000
 23706,0.00038370,0.00023167,-0.00018514,0.00016088,-0.00004396,0.00001
 999,-0.00026565,-0.00007627,0.00006145,-0.00073045,0.00013829,0.000954
 84,0.01499159,-0.01366652,-0.01498058,0.00001069,-0.00000195,-0.000021
 10,-0.00000199,-0.00000049,-0.00000355,-0.00000944,0.00000324,-0.00000
 761,0.00000017,0.00000826,-0.00000205,0.00000547,-0.00001068,0.0000224
 2,0.00000083,0.00000251,-0.00000559,-0.00000862,0.00000803,0.00001093,
 -0.00000805,-0.00001124,0.00000011,-0.08784608,0.07054958,0.06386837,-
 0.00551531,0.01052250,0.00839586,0.09194413,-0.00509250,-0.00398711,-0
 .00245278,-0.00038374,0.00002572,0.00008223,0.00034623,0.00006451,-0.0
 0002740,0.00002042,0.00000174,-0.00002618,-0.00003082,-0.00045636,-0.0
 0012375,-0.00038656,0.00026959,-0.00039544,-0.00021757,0.00020198,0.00
 010806,0.00050412,0.00010633,-0.00017755,-0.00004538,0.00014250,0.0003
 9203,-0.00000626,0.00002275,-0.00009093,0.00001042,-0.00005763,0.00001
 927,-0.00058907,0.00011039,0.00082699,0.01167588,-0.01224217,-0.008551
 70,0.00002139,-0.00002517,0.00002178,-0.00000338,0.00001505,-0.0000042
 8,-0.00001853,0.00000732,-0.00001174,-0.00003184,0.00001820,-0.0000067
 8,0.00001483,-0.00001485,0.00003237,-0.00000312,-0.00000856,-0.0000094
 8,0.00000307,-0.00000536,0.00000678,-0.00000212,-0.00003566,0.00000382
 ,0.06937889,-0.17003432,-0.12261250,-0.00590269,0.01204469,0.01078044,
 -0.07683677,0.18638620,-0.00190226,-0.00172050,0.00029266,-0.00004730,
 0.00004326,0.00005673,0.00001404,0.00027241,0.00005324,-0.00009339,-0.
 00002927,-0.00001596,0.00019975,-0.00026653,-0.00011108,-0.00054062,-0
 .00049293,-0.00064700,-0.00004245,0.00027372,0.00009574,0.00009401,-0.
 00008356,-0.00011596,-0.00006690,0.00023992,0.00020756,0.00002106,0.00
 003688,-0.00006468,-0.00001829,-0.00005388,-0.00001500,-0.00080838,0.0
 0004092,0.00080411,0.00812098,-0.00374802,-0.00591668,0.00001874,0.000
 00440,-0.00001077,-0.00000523,0.00000227,0.00000017,-0.00000345,0.0000
 0160,-0.00000826,0.00000226,0.00000670,-0.00000239,0.00001263,-0.00000
 004,0.00002407,0.00000025,0.00000316,-0.00000697,-0.00000378,-0.000000
 29,0.00000884,-0.00000581,-0.00001123,-0.00000033,0.06160286,-0.120233
 32,-0.16182150,0.00830757,-0.01644296,-0.01489352,-0.07065604,0.131351
 32,0.16942868,0.00407664,0.00195138,0.00353655,-0.00037653,-0.00009217
 ,0.00002881,0.00043757,0.00021559,0.00002295,0.00001198,0.00000205,-0.
 00001952,-0.00028955,-0.00049073,-0.00004652,0.00008222,-0.00001609,0.
 00006227,-0.00008449,-0.00030546,0.00000846,0.00029979,0.00034964,-0.0
 0003907,-0.00093060,0.00060762,0.00022705,-0.00003599,-0.00003649,0.00
 001513,0.00007647,0.00008211,-0.00002013,-0.00105763,-0.00415996,-0.00
 123881,-0.02217751,0.01385736,-0.01309359,-0.00000187,-0.00001909,0.00
 000075,-0.00000731,0.00002224,-0.00000256,-0.00002122,0.00001305,-0.00
 000528,-0.00002441,0.00001367,-0.00000308,-0.00000608,-0.00003275,-0.0
 0000069,-0.00000519,-0.00001664,-0.00000325,0.00000131,0.00000533,0.00
 000303,0.00000289,-0.00002044,0.00000784,-0.17204939,0.10708900,-0.087
 82277,0.01173096,-0.00896421,0.00669350,-0.00707933,0.00466635,-0.0046
 5397,0.18723942,-0.00037980,0.00164043,0.00093041,0.00010272,-0.000036
 64,0.00002456,-0.00018281,0.00008502,0.00001478,-0.00007518,-0.0000196
 7,0.00000784,-0.00002942,-0.00007525,0.00003157,0.00001326,-0.00037496
 ,-0.00014548,0.00012607,-0.00008051,-0.00001306,-0.00025324,0.00001243
 ,-0.00007226,-0.00083353,0.00042426,0.00018216,0.00006489,0.00000502,0
 .00001190,-0.00001337,0.00007618,0.00002129,-0.00122922,-0.00283594,-0
 .00039332,-0.01663584,0.01038926,-0.01201728,-0.00000594,0.00002646,-0
 .00001209,-0.00000392,-0.00000204,-0.00000025,0.00000968,-0.00000606,0
 .00000477,0.00001380,-0.00000680,-0.00000036,-0.00001255,0.00000162,-0
 .00001200,-0.00000014,0.00000014,0.00000478,-0.00000326,0.00001051,0.0
 0000428,0.00000258,0.00001204,-0.00000069,0.11071652,-0.13662811,0.072
 53697,0.01048208,-0.00847619,0.00605358,0.01192891,-0.01027044,0.01066
 967,-0.11457920,0.14651655,0.00160837,0.00033922,0.00128942,-0.0004422
 2,-0.00000145,0.00011046,0.00065463,0.00028311,0.00012602,0.00001383,-
 0.00000733,-0.00001915,-0.00008612,-0.00063575,-0.00006175,-0.00016581
 ,-0.00019927,-0.00010519,-0.00030844,-0.00000492,0.00002027,0.00052932
 ,0.00017243,-0.00024846,-0.00032477,0.00051228,0.00037949,0.00002568,-
 0.00001086,0.00001414,-0.00009044,-0.00004422,-0.00005379,-0.00094789,
 -0.00203186,-0.00004300,-0.00793088,0.00822529,-0.00629505,0.00002390,
 -0.00004091,0.00000442,-0.00000688,0.00002270,-0.00000445,-0.00003292,
 0.00001726,-0.00001661,-0.00003685,0.00002888,-0.00000321,0.00000962,-
 0.00002628,0.00005383,-0.00000108,-0.00001342,-0.00001522,0.00000224,-
 0.00000677,0.00000517,-0.00000434,-0.00003991,0.00000461,-0.08722809,0
 .06982109,-0.10721515,-0.01680954,0.01302564,-0.01088255,0.01487693,-0
 .01125561,0.01222513,0.09638410,-0.07820420,0.11049548,-0.00005054,0.0
 0013069,0.00012417,0.00156941,-0.00021525,-0.00008496,-0.03862704,-0.0
 3642346,-0.00275131,0.00018604,-0.00290984,0.00095168,-0.00074252,0.00
 114456,-0.00023698,-0.12368180,-0.04609369,-0.00600725,0.00045170,0.00
 267107,-0.00062525,-0.00175952,-0.00015032,0.00011957,-0.00152801,0.00
 322938,-0.00025541,0.00025234,0.00059559,0.00017323,0.00000488,0.00039
 722,-0.00003761,0.01592077,0.00268286,0.00262428,-0.00103553,0.0006849
 6,-0.00073231,-0.00045162,-0.00064522,-0.00031335,0.00011041,-0.000030
 72,0.00005050,-0.00013658,-0.00003021,0.00004032,0.00005936,-0.0000777
 9,-0.00004962,-0.00007597,-0.00003542,-0.00004349,0.00003150,0.0000170
 4,0.00003154,-0.00000314,0.00004758,-0.00002660,-0.00002008,0.00011849
 ,-0.00001619,-0.00054145,0.00110224,-0.00115471,-0.00025408,-0.0001187
 3,-0.00018624,-0.00115913,0.00128610,0.00017041,0.00006550,0.00026737,
 0.00047225,0.57639463,0.00009120,-0.00119120,-0.00019349,0.00282822,-0
 .00025195,-0.00009619,-0.00818850,0.00118568,0.00061614,0.00263581,0.0
 0263278,-0.00083821,0.00106625,0.00253766,0.00014459,-0.06608826,-0.18
 697874,-0.00518663,0.00473604,-0.00191712,0.00128998,-0.00368955,-0.00
 071930,0.00012137,0.00219809,-0.00031078,0.00100460,-0.00045466,-0.000
 69477,-0.00025672,-0.00035087,-0.00055809,-0.00011333,-0.01298639,-0.0
 2326951,-0.00047889,-0.00211140,0.00257656,-0.00078271,-0.00005142,0.0
 0072684,-0.00011524,-0.00001988,-0.00017124,-0.00000517,0.00026622,-0.
 00014438,0.00011275,0.00027579,-0.00018622,0.00003570,-0.00015713,-0.0
 0009888,-0.00024660,-0.00003350,0.00005778,0.00007105,-0.00007732,0.00
 014589,0.00007268,-0.00002056,0.00024585,-0.00007850,0.00306742,-0.001
 22615,0.00236612,-0.00008341,-0.00026614,0.00065573,0.00135962,-0.0010
 8430,-0.00077734,-0.00009837,-0.00077047,-0.00010297,-0.04006355,0.519
 72974,0.00038670,-0.00009980,-0.00013185,0.00002386,-0.00008390,0.0000
 2825,0.00133552,-0.00045693,0.00249496,-0.00101756,-0.00093199,-0.0030
 7350,-0.00051847,0.00058250,-0.00057348,-0.00294605,0.00548833,-0.0635
 5796,-0.00157279,-0.00138447,0.00397864,-0.00003981,0.00029395,-0.0003
 3360,-0.00062288,-0.00000337,0.00347759,-0.00027714,-0.00044416,0.0000
 9058,0.00026813,0.00072320,0.00017471,0.00370572,-0.00164077,0.0034055
 0,-0.00131033,-0.00020959,-0.00111386,0.00000988,-0.00014487,0.0014737
 0,0.00000206,0.00007441,-0.00004742,0.00037729,-0.00025330,0.00009460,
 -0.00044989,0.00029427,-0.00000634,0.00003739,-0.00005359,-0.00002488,
 0.00002765,0.00000158,0.00000759,-0.00007012,-0.00003971,0.00002004,0.
 00001407,0.00003994,0.00003883,-0.00166259,0.00079244,-0.00014214,0.00
 051182,0.00026629,-0.00083573,-0.00117072,0.00080563,-0.00009949,0.000
 16835,0.00054826,-0.00039970,-0.00170802,-0.00458296,0.54480259,0.0000
 9189,-0.00048134,-0.00006204,-0.00097619,0.00007480,0.00005106,0.00109
 597,-0.00157691,-0.00013566,0.00013030,-0.00011369,-0.00075717,-0.0001
 6544,-0.00072625,0.00006866,-0.00812160,-0.00770822,-0.01523552,-0.001
 40657,0.00020047,0.00059191,0.00118398,0.00016903,-0.00006073,-0.00002
 198,-0.00047407,0.00008856,-0.00004620,-0.00001553,0.00000927,0.000008
 98,0.00008947,0.00007625,-0.00046182,0.00171707,-0.00017124,0.00037348
 ,0.00028559,0.00017276,0.00003535,-0.00017314,0.00019755,0.00000660,0.
 00005033,-0.00002470,-0.00003797,0.00002416,-0.00001500,-0.00017161,0.
 00006824,-0.00000517,0.00002547,0.00000888,0.00002185,-0.00000263,-0.0
 0002902,-0.00001997,0.00001115,-0.00003514,0.00000049,0.00001232,-0.00
 006973,0.00002420,-0.00028152,0.00003350,-0.00010452,-0.00003934,0.000
 09659,0.00018719,-0.00070737,0.00137256,-0.00023502,0.00005088,-0.0001
 6750,-0.00003279,-0.06200406,-0.01619424,-0.06600335,0.06821944,0.0002
 7382,0.00073850,0.00025513,-0.00188810,0.00002078,0.00006456,0.0051839
 7,-0.00028767,-0.00057823,-0.00015901,-0.00005793,-0.00015271,-0.00102
 941,-0.00086421,-0.00021725,-0.01278463,-0.00912413,-0.02429268,-0.002
 29435,-0.00128907,0.00029300,0.00237708,0.00085785,-0.00015093,0.00011
 930,-0.00057164,0.00060259,-0.00001027,-0.00006822,0.00005629,0.000105
 09,0.00017858,0.00008854,-0.00093036,-0.00020613,0.00048046,-0.0003276
 1,-0.00087448,-0.00079098,0.00008498,-0.00023497,0.00043553,-0.0000286
 1,0.00012204,-0.00001701,-0.00004441,0.00002537,-0.00003350,-0.0002672
 8,0.00016593,-0.00001727,0.00005548,-0.00002649,0.00008895,-0.00000002
 ,-0.00005152,-0.00003349,0.00002291,-0.00007015,-0.00001670,0.00002686
 ,-0.00012816,0.00004180,0.00040544,-0.00026407,-0.00029434,-0.00000763
 ,-0.00003690,0.00000027,0.00126994,-0.00099278,0.00072849,-0.00010446,
 0.00029171,0.00018271,-0.01707785,-0.06132221,-0.06208058,0.02169598,0
 .06817990,0.00015433,-0.00012327,0.00018240,-0.00060776,0.00003100,0.0
 0000038,0.00124165,0.00000809,-0.00047992,0.00017239,-0.00006607,-0.00
 007354,-0.00016967,-0.00045740,0.00039831,-0.00195033,-0.00444709,0.00
 805081,-0.00034037,0.00016024,-0.00084374,0.00076482,0.00017929,0.0000
 9353,0.00005541,-0.00036774,-0.00015938,0.00000894,0.00000307,-0.00001
 872,0.00006218,0.00003123,0.00001057,-0.00108876,0.00149829,-0.0008181
 1,0.00026848,0.00010629,-0.00031311,0.00003207,-0.00004283,-0.00000253
 ,-0.00000767,0.00002270,-0.00001925,-0.00004603,0.00004786,-0.00000702
 ,-0.00004608,0.00001390,0.00001369,0.00001471,0.00000090,-0.00001144,-
 0.00000238,-0.00002069,-0.00001268,0.00001449,-0.00002709,-0.00001020,
 0.00000767,-0.00003364,0.00000873,-0.00045881,0.00038995,-0.00111032,-
 0.00002394,-0.00017132,0.00006914,-0.00065931,0.00095504,0.00099746,-0
 .00004879,0.00024756,0.00026041,-0.06268722,-0.05832494,-0.27460551,0.
 07248579,0.06600153,0.29583824,0.00010638,-0.00024871,-0.00023567,-0.0
 0082824,0.00005377,0.00001990,-0.00165439,-0.00323203,0.00155954,0.000
 62463,-0.00021256,0.00025756,-0.00012895,-0.00082674,-0.00010598,-0.01
 493482,-0.00091534,0.00580784,-0.00054535,0.00108957,0.00005882,0.0010
 5077,0.00015988,-0.00004033,-0.00004298,-0.00039016,-0.00033164,0.0000
 1582,0.00008864,0.00001620,0.00000349,-0.00001038,0.00003650,0.0001847
 7,0.00206250,-0.00077473,0.00033347,-0.00018738,0.00089513,-0.00001190
 ,-0.00019836,-0.00022889,0.00002483,0.00003071,0.00001172,-0.00014800,
 0.00005807,-0.00003223,-0.00002890,0.00001256,-0.00000882,0.00001887,0
 .00000810,0.00005664,-0.00000418,-0.00002273,-0.00001422,0.00001799,-0
 .00002514,-0.00000440,0.00001111,-0.00006812,0.00002182,-0.00150857,0.
 00088274,-0.00073573,-0.00042810,0.00118591,-0.00098064,-0.00012283,0.
 00008409,-0.00004904,0.00004125,0.00027694,-0.00021124,-0.23491074,0.0
 2239018,0.12774745,0.00797028,-0.00042925,-0.00476984,0.25740180,0.000
 31685,-0.00009862,-0.00002093,-0.00040266,-0.00006341,-0.00005044,-0.0
 0100018,-0.00377171,0.00117882,-0.00044611,-0.00050898,0.00017448,-0.0
 0062786,0.00041588,0.00027854,-0.02620194,0.00471311,0.01491948,-0.001
 14788,-0.00053498,-0.00078971,0.00047916,0.00034436,0.00016698,0.00004
 558,-0.00007384,-0.00040149,0.00005490,0.00015741,0.00002285,0.0000611
 5,0.00006902,-0.00000224,0.00083482,0.00063411,-0.00061053,-0.00056468
 ,-0.00045870,-0.00009145,-0.00004006,-0.00022292,-0.00039884,0.0000005
 3,0.00003693,-0.00000189,-0.00017240,0.00008211,-0.00001630,0.00002676
 ,-0.00002943,0.00000410,-0.00000455,-0.00000034,-0.00002631,-0.0000005
 2,-0.00002094,-0.00000377,0.00002252,-0.00001378,-0.00001438,0.0000136
 0,-0.00001326,0.00000713,0.00079708,-0.00063862,0.00073481,0.00100422,
 -0.00034400,0.00049694,0.00012383,-0.00015421,0.00012130,0.00010567,0.
 00000451,-0.00002703,0.02359538,-0.05106816,-0.01477933,0.00666977,-0.
 00104220,-0.00355060,-0.02252678,0.05409593,-0.00033798,-0.00010046,0.
 00001557,0.00025475,-0.00004311,-0.00001996,-0.00222247,-0.00109130,-0
 .00077882,0.00034526,-0.00001666,0.00013935,0.00003755,0.00013668,0.00
 005897,-0.00294003,0.00112517,0.00305704,0.00023684,-0.00005115,-0.000
 39114,-0.00029807,-0.00001014,0.00006385,-0.00011370,0.00015370,0.0000
 6302,-0.00000384,-0.00003083,-0.00002097,0.00002840,-0.00001084,-0.000
 01396,-0.00019245,0.00010933,0.00007198,0.00094656,0.00038813,-0.00028
 507,-0.00007076,-0.00000055,0.00008015,0.00000895,-0.00000638,0.000000
 58,0.00002224,-0.00001041,0.00001873,-0.00000672,-0.00000437,0.0000013
 7,-0.00002013,-0.00002347,-0.00001689,-0.00000054,0.00000210,0.0000049
 7,-0.00000106,0.00001094,0.00000128,-0.00000478,0.00002205,-0.00001243
 ,0.00068124,-0.00023876,0.00035495,-0.00077445,0.00018063,0.00074558,0
 .00020355,0.00012279,-0.00084876,-0.00005954,-0.00049504,0.00011002,0.
 12729667,-0.01354672,-0.12897506,0.02554118,-0.00359550,-0.01700602,-0
 .13643220,0.01706685,0.13553083,0.00019334,0.00018454,0.00012307,0.000
 14807,0.00000827,-0.00001482,0.00119887,-0.00253482,0.00052589,-0.0009
 4083,-0.00017426,0.00002858,0.00015578,0.00018894,0.00034885,0.0084144
 5,-0.01526913,0.00779564,0.00031680,-0.00058182,0.00003086,-0.00021876
 ,-0.00007537,0.00009391,0.00024631,-0.00048554,-0.00033808,-0.00001674
 ,-0.00005448,-0.00003088,-0.00006195,-0.00012950,-0.00002271,-0.002074
 48,-0.00178709,-0.00050206,-0.00057326,-0.00036618,-0.00013249,0.00003
 935,0.00012235,-0.00018533,-0.00002509,-0.00000374,-0.00001397,0.00000
 072,0.00003388,0.00000688,0.00006531,-0.00004013,0.00002088,-0.0000214
 2,0.00000209,-0.00007159,-0.00000565,-0.00000513,0.00000563,-0.0000044
 2,0.00000769,0.00000271,-0.00000040,0.00002460,-0.00000528,-0.00057132
 ,0.00048365,-0.00076342,0.00040484,-0.00012014,-0.00022531,-0.00020782
 ,0.00016602,0.00056739,0.00003023,0.00040011,0.00005944,-0.12806471,0.
 10975416,-0.05524615,-0.00477181,0.00576239,-0.00237597,-0.01250752,0.
 01898380,-0.01212449,0.13885211,0.00015719,0.00004809,0.00001241,-0.00
 091802,0.00000669,0.00003395,0.00612233,0.00255833,-0.00045160,-0.0019
 4975,-0.00022018,0.00040028,-0.00019154,-0.00003070,-0.00009067,0.0139
 6512,-0.02380756,0.00914965,-0.00143126,-0.00103222,-0.00023848,0.0010
 4793,0.00043273,-0.00006585,0.00085646,-0.00064076,0.00004420,-0.00006
 461,-0.00018904,-0.00006283,-0.00004247,-0.00021822,0.00001730,-0.0048
 3782,-0.00187917,0.00046768,-0.00006165,0.00017445,-0.00011950,0.00007
 920,-0.00007741,0.00009833,-0.00005626,0.00008354,-0.00000258,-0.00004
 368,0.00003731,-0.00002851,-0.00007944,0.00007758,-0.00000895,0.000017
 00,-0.00002029,0.00004337,-0.00001955,-0.00001973,-0.00001600,0.000019
 00,-0.00001305,0.00000572,0.00001128,-0.00006376,-0.00000028,-0.000124
 92,0.00012882,0.00000309,-0.00002653,0.00000524,-0.00005440,0.00009230
 ,-0.00004807,0.00006387,-0.00004501,0.00008692,0.00002215,0.10590151,-
 0.19760918,0.07727854,-0.00479165,0.00693224,-0.00206427,0.00091003,-0
 .00149526,-0.00004267,-0.11449517,0.21679267,0.00012437,-0.00020472,-0
 .00001249,0.00038461,0.00000770,-0.00000567,-0.00153190,-0.00103176,0.
 00029960,0.00074867,0.00054689,0.00054150,0.00030104,0.00002289,0.0000
 8645,0.00153656,-0.00317677,-0.00028464,0.00057012,0.00055557,-0.00002
 061,-0.00047204,-0.00024719,0.00001281,-0.00007631,-0.00011222,0.00007
 366,-0.00002295,-0.00007267,0.00003466,-0.00001204,0.00001685,0.000054
 70,-0.00027415,0.00003071,0.00025164,-0.00019213,0.00012236,-0.0000926
 3,-0.00002315,0.00003930,-0.00009667,0.00001527,-0.00003104,0.00002492
 ,-0.00000065,-0.00001927,0.00001058,0.00004067,-0.00002654,0.00000546,
 -0.00001900,0.00000324,-0.00002948,-0.00000065,0.00000807,0.00000830,-
 0.00000725,0.00001287,0.00000577,-0.00000374,0.00002849,-0.00000399,0.
 00004406,-0.00013253,-0.00062591,-0.00012399,-0.00005567,0.00012747,-0
 .00002156,0.00023757,0.00038396,-0.00010123,0.00007165,0.00026442,-0.0
 5513810,0.07923590,-0.08616706,-0.01665384,0.02295134,-0.01043218,0.00
 846648,-0.01438703,0.00805084,0.06244282,-0.08439397,0.08753459\\0.000
 00296,-0.00000484,-0.00000235,0.00000212,0.00000594,-0.00000271,-0.000
 00378,0.00000773,-0.00000224,0.00000201,-0.00000018,0.00000817,-0.0000
 0223,0.00001057,-0.00000118,0.00000825,-0.00000940,-0.00000468,0.00000
 782,-0.00000655,0.00000307,-0.00000803,0.00000209,-0.00000355,-0.00000
 274,0.00000896,-0.00000741,0.00000177,-0.00000332,-0.00000247,-0.00000
 126,-0.00000240,0.00000096,-0.00000972,-0.00000014,0.00000607,0.000001
 23,0.00000274,-0.00000251,-0.00000133,0.00000299,0.00000484,0.00000118
 ,0.00000153,0.00000312,-0.00000026,0.00000367,0.00000186,-0.00000085,0
 .00000198,0.00000257,-0.00000231,-0.00000272,-0.00000447,-0.00000267,0
 .00000330,-0.00000445,-0.00000288,0.00000116,-0.00000465,-0.00000125,-
 0.00000047,-0.00000511,-0.00000155,-0.00000450,0.00000521,0.00000048,-
 0.00000421,-0.00000307,0.00000477,-0.00000543,-0.00000058,0.,-0.000005
 97,-0.00000160,0.00000081,0.00000036,0.00000504,0.00000282,-0.00000288
 ,0.00000434,0.00000226,0.00000010,0.00000248,0.00000240,-0.00000013,0.
 00000530\\\@


 THE VALUE OF PHILOSOPHY IS, IN FACT, TO BE SOUGHT LARGELY IN ITS
 VERY UNCERTAINTY.  THE MAN WHO HAS NO TINCTURE OF PHILOSOPHY GOES
 THROUGH LIFE IMPRISONED IN THE PREJUDICES DERIVED FROM COMMON SENSE,
 FROM THE HABITUAL BELIEFS OF HIS AGE OR HIS NATION, AND FROM
 CONVICTIONS WHICH HAVE GROWN UP IN HIS MIND WITHOUT THE CO-OPERATION
 OR CONSENT OF HIS DELIBERATE REASON.  TO SUCH A MAN THE WORLD TENDS
 TO BE DEFINITE, FINITE, OBVIOUS; COMMON OBJECTS ROUSE NO QUESTIONS,
 AND UNFAMILIAR POSSIBILITIES ARE CONTEMPTUOUSLY REJECTED.

                             -- BERTRAND RUSSELL
 Job cpu time:       0 days  7 hours 59 minutes 28.7 seconds.
 Elapsed time:       0 days  0 hours 15 minutes  4.9 seconds.
 File lengths (MBytes):  RWF=   1416 Int=      0 D2E=      0 Chk=     67 Scr=      1
 Normal termination of Gaussian 16 at Tue Jan 20 21:51:08 2026.
