 Entering Gaussian System, Link 0=g16
 Input=DDL-S0-opt-freq.gjf
 Output=DDL-S0-opt-freq.log
 Initial command:
 /data/home/wyx/g16/l1.exe "/scr/tmp/wyx/13032/Gau-1772377.inp" -scrdir="/scr/tmp/wyx/13032/"
 Entering Link 1 = /data/home/wyx/g16/l1.exe PID=   1772378.
  
 Copyright (c) 1988,1990,1992,1993,1995,1998,2003,2009,2016,
            Gaussian, Inc.  All Rights Reserved.
  
 This is part of the Gaussian(R) 16 program.  It is based on
 the Gaussian(R) 09 system (copyright 2009, Gaussian, Inc.),
 the Gaussian(R) 03 system (copyright 2003, Gaussian, Inc.),
 the Gaussian(R) 98 system (copyright 1998, Gaussian, Inc.),
 the Gaussian(R) 94 system (copyright 1995, Gaussian, Inc.),
 the Gaussian 92(TM) system (copyright 1992, Gaussian, Inc.),
 the Gaussian 90(TM) system (copyright 1990, Gaussian, Inc.),
 the Gaussian 88(TM) system (copyright 1988, Gaussian, Inc.),
 the Gaussian 86(TM) system (copyright 1986, Carnegie Mellon
 University), and the Gaussian 82(TM) system (copyright 1983,
 Carnegie Mellon University). Gaussian is a federally registered
 trademark of Gaussian, Inc.
  
 This software contains proprietary and confidential information,
 including trade secrets, belonging to Gaussian, Inc.
  
 This software is provided under written license and may be
 used, copied, transmitted, or stored only in accord with that
 written license.
  
 The following legend is applicable only to US Government
 contracts under FAR:
  
                    RESTRICTED RIGHTS LEGEND
  
 Use, reproduction and disclosure by the US Government is
 subject to restrictions as set forth in subparagraphs (a)
 and (c) of the Commercial Computer Software - Restricted
 Rights clause in FAR 52.227-19.
  
 Gaussian, Inc.
 340 Quinnipiac St., Bldg. 40, Wallingford CT 06492
  
  
 ---------------------------------------------------------------
 Warning -- This program may not be used in any manner that
 competes with the business of Gaussian, Inc. or will provide
 assistance to any competitor of Gaussian, Inc.  The licensee
 of this program is prohibited from giving any competitor of
 Gaussian, Inc. access to this program.  By using this program,
 the user acknowledges that Gaussian, Inc. is engaged in the
 business of creating and licensing software in the field of
 computational chemistry and represents and warrants to the
 licensee that it is not a competitor of Gaussian, Inc. and that
 it will not use this program in any manner prohibited above.
 ---------------------------------------------------------------
  

 Cite this work as:
 Gaussian 16, Revision A.03,
 M. J. Frisch, G. W. Trucks, H. B. Schlegel, G. E. Scuseria, 
 M. A. Robb, J. R. Cheeseman, G. Scalmani, V. Barone, 
 G. A. Petersson, H. Nakatsuji, X. Li, M. Caricato, A. V. Marenich, 
 J. Bloino, B. G. Janesko, R. Gomperts, B. Mennucci, H. P. Hratchian, 
 J. V. Ortiz, A. F. Izmaylov, J. L. Sonnenberg, D. Williams-Young, 
 F. Ding, F. Lipparini, F. Egidi, J. Goings, B. Peng, A. Petrone, 
 T. Henderson, D. Ranasinghe, V. G. Zakrzewski, J. Gao, N. Rega, 
 G. Zheng, W. Liang, M. Hada, M. Ehara, K. Toyota, R. Fukuda, 
 J. Hasegawa, M. Ishida, T. Nakajima, Y. Honda, O. Kitao, H. Nakai, 
 T. Vreven, K. Throssell, J. A. Montgomery, Jr., J. E. Peralta, 
 F. Ogliaro, M. J. Bearpark, J. J. Heyd, E. N. Brothers, K. N. Kudin, 
 V. N. Staroverov, T. A. Keith, R. Kobayashi, J. Normand, 
 K. Raghavachari, A. P. Rendell, J. C. Burant, S. S. Iyengar, 
 J. Tomasi, M. Cossi, J. M. Millam, M. Klene, C. Adamo, R. Cammi, 
 J. W. Ochterski, R. L. Martin, K. Morokuma, O. Farkas, 
 J. B. Foresman, and D. J. Fox, Gaussian, Inc., Wallingford CT, 2016.
 
 ******************************************
 Gaussian 16:  ES64L-G16RevA.03 25-Dec-2016
                20-Jan-2026 
 ******************************************
 %nprocshared=32
 Will use up to   32 processors via shared memory.
 %mem=16GB
 %chk=DDL-S0-opt-freq.chk
 ----------------------------------------------------------------
 #p CAM-B3LYP/TZVP em=gd3bj Opt Freq SCRF=Solvent=TetraHydroFuran
 ----------------------------------------------------------------
 1/18=20,19=15,26=3,38=1/1,3;
 2/9=110,12=2,17=6,18=5,40=1/2;
 3/5=19,7=101,11=2,25=1,30=1,70=2201,71=1,72=20,74=-40,124=41/1,2,3;
 4//1;
 5/5=2,38=5,53=20/2;
 6/7=2,8=2,9=2,10=2,28=1/1;
 7//1,2,3,16;
 1/18=20,19=15,26=3/3(2);
 2/9=110/2;
 99//99;
 2/9=110/2;
 3/5=19,7=101,11=2,25=1,30=1,70=2205,71=1,72=20,74=-40,124=41/1,2,3;
 4/5=5,16=3,69=1/1;
 5/5=2,38=5,53=20/2;
 7//1,2,3,16;
 1/18=20,19=15,26=3/3(-5);
 2/9=110/2;
 6/7=2,8=2,9=2,10=2,19=2,28=1/1;
 99/9=1/99;
 Leave Link    1 at Tue Jan 20 17:35:14 2026, MaxMem=  2147483648 cpu:               0.7 elap:               0.1
 (Enter /data/home/wyx/g16/l101.exe)
 -------------------
 Title Card Required
 -------------------
 Symbolic Z-matrix:
 Charge =  0 Multiplicity = 1
 O                     1.30034   9.82448   0.889 
 O                    -4.90066   9.75248  -0.049 
 N                    -2.11966   12.93348   0.232 
 H                    -2.38066   13.74948   0.154 
 C                    -2.70566   10.63348   0.189 
 C                    -0.78166   12.71248   0.467 
 C                    -3.07066   11.94248   0.113 
 C                    -3.68666   9.55548   0.088 
 C                    -1.25366   10.25448   0.396 
 H                    -1.18866   9.69448   1.185 
 H                    -0.96066   9.72648  -0.363 
 C                    -0.31566   11.43348   0.559 
 C                     1.06334   11.04048   0.806 
 C                    -4.45566   12.48248  -0.092 
 H                    -4.41166   13.42948  -0.242 
 H                    -4.85666   12.05548  -0.853 
 H                    -4.98666   12.30648   0.689 
 C                    -3.18166   8.13648   0.152 
 H                    -3.91066   7.52948   0.003 
 H                    -2.51166   8.00448  -0.522 
 H                    -2.80066   7.97148   1.018 
 C                     2.22234   11.99248   0.967 
 H                     2.28634   12.55248   0.19 
 H                     2.08334   12.53848   1.744 
 H                     3.03634   11.49248   1.068 
 C                     0.01334   13.98748   0.593 
 H                     0.44234   14.01348   1.452 
 H                     0.67834   14.01948  -0.098 
 H                    -0.57566   14.74048   0.507 
 
 ITRead=  0  0  0  0  0  0  0  0  0  0  0  0  0  0  0  0  0  0  0  0
 ITRead=  0  0  0  0  0  0  0  0  0
 MicOpt= -1 -1 -1 -1 -1 -1 -1 -1 -1 -1 -1 -1 -1 -1 -1 -1 -1 -1 -1 -1
 MicOpt= -1 -1 -1 -1 -1 -1 -1 -1 -1
 NAtoms=     29 NQM=       29 NQMF=       0 NMMI=      0 NMMIF=      0
                NMic=       0 NMicF=      0.
                    Isotopes and Nuclear Properties:
 (Nuclear quadrupole moments (NQMom) in fm**2, nuclear magnetic moments (NMagM)
  in nuclear magnetons)

  Atom         1           2           3           4           5           6           7           8           9          10
 IAtWgt=          16          16          14           1          12          12          12          12          12           1
 AtmWgt=  15.9949146  15.9949146  14.0030740   1.0078250  12.0000000  12.0000000  12.0000000  12.0000000  12.0000000   1.0078250
 NucSpn=           0           0           2           1           0           0           0           0           0           1
 AtZEff=  -0.0000000  -0.0000000  -0.0000000  -0.0000000  -0.0000000  -0.0000000  -0.0000000  -0.0000000  -0.0000000  -0.0000000
 NQMom=    0.0000000   0.0000000   2.0440000   0.0000000   0.0000000   0.0000000   0.0000000   0.0000000   0.0000000   0.0000000
 NMagM=    0.0000000   0.0000000   0.4037610   2.7928460   0.0000000   0.0000000   0.0000000   0.0000000   0.0000000   2.7928460
 AtZNuc=   8.0000000   8.0000000   7.0000000   1.0000000   6.0000000   6.0000000   6.0000000   6.0000000   6.0000000   1.0000000

  Atom        11          12          13          14          15          16          17          18          19          20
 IAtWgt=           1          12          12          12           1           1           1          12           1           1
 AtmWgt=   1.0078250  12.0000000  12.0000000  12.0000000   1.0078250   1.0078250   1.0078250  12.0000000   1.0078250   1.0078250
 NucSpn=           1           0           0           0           1           1           1           0           1           1
 AtZEff=  -0.0000000  -0.0000000  -0.0000000  -0.0000000  -0.0000000  -0.0000000  -0.0000000  -0.0000000  -0.0000000  -0.0000000
 NQMom=    0.0000000   0.0000000   0.0000000   0.0000000   0.0000000   0.0000000   0.0000000   0.0000000   0.0000000   0.0000000
 NMagM=    2.7928460   0.0000000   0.0000000   0.0000000   2.7928460   2.7928460   2.7928460   0.0000000   2.7928460   2.7928460
 AtZNuc=   1.0000000   6.0000000   6.0000000   6.0000000   1.0000000   1.0000000   1.0000000   6.0000000   1.0000000   1.0000000

  Atom        21          22          23          24          25          26          27          28          29
 IAtWgt=           1          12           1           1           1          12           1           1           1
 AtmWgt=   1.0078250  12.0000000   1.0078250   1.0078250   1.0078250  12.0000000   1.0078250   1.0078250   1.0078250
 NucSpn=           1           0           1           1           1           0           1           1           1
 AtZEff=  -0.0000000  -0.0000000  -0.0000000  -0.0000000  -0.0000000  -0.0000000  -0.0000000  -0.0000000  -0.0000000
 NQMom=    0.0000000   0.0000000   0.0000000   0.0000000   0.0000000   0.0000000   0.0000000   0.0000000   0.0000000
 NMagM=    2.7928460   0.0000000   2.7928460   2.7928460   2.7928460   0.0000000   2.7928460   2.7928460   2.7928460
 AtZNuc=   1.0000000   6.0000000   1.0000000   1.0000000   1.0000000   6.0000000   1.0000000   1.0000000   1.0000000
 Leave Link  101 at Tue Jan 20 17:35:15 2026, MaxMem=  2147483648 cpu:               6.2 elap:               0.2
 (Enter /data/home/wyx/g16/l103.exe)

 GradGradGradGradGradGradGradGradGradGradGradGradGradGradGradGradGradGrad
 Berny optimization.
 Initialization pass.
                           ----------------------------
                           !    Initial Parameters    !
                           ! (Angstroms and Degrees)  !
 --------------------------                            --------------------------
 ! Name  Definition              Value          Derivative Info.                !
 --------------------------------------------------------------------------------
 ! R1    R(1,13)                 1.2417         estimate D2E/DX2                !
 ! R2    R(2,8)                  1.2375         estimate D2E/DX2                !
 ! R3    R(3,4)                  0.8603         estimate D2E/DX2                !
 ! R4    R(3,6)                  1.3763         estimate D2E/DX2                !
 ! R5    R(3,7)                  1.3786         estimate D2E/DX2                !
 ! R6    R(5,7)                  1.3611         estimate D2E/DX2                !
 ! R7    R(5,8)                  1.461          estimate D2E/DX2                !
 ! R8    R(5,9)                  1.5149         estimate D2E/DX2                !
 ! R9    R(6,12)                 1.3644         estimate D2E/DX2                !
 ! R10   R(6,26)                 1.5078         estimate D2E/DX2                !
 ! R11   R(7,14)                 1.5006         estimate D2E/DX2                !
 ! R12   R(8,18)                 1.5075         estimate D2E/DX2                !
 ! R13   R(9,10)                 0.9697         estimate D2E/DX2                !
 ! R14   R(9,11)                 0.9699         estimate D2E/DX2                !
 ! R15   R(9,12)                 1.5154         estimate D2E/DX2                !
 ! R16   R(12,13)                1.455          estimate D2E/DX2                !
 ! R17   R(13,22)                1.5085         estimate D2E/DX2                !
 ! R18   R(14,15)                0.9598         estimate D2E/DX2                !
 ! R19   R(14,16)                0.9603         estimate D2E/DX2                !
 ! R20   R(14,17)                0.9607         estimate D2E/DX2                !
 ! R21   R(18,19)                0.9603         estimate D2E/DX2                !
 ! R22   R(18,20)                0.9595         estimate D2E/DX2                !
 ! R23   R(18,21)                0.9604         estimate D2E/DX2                !
 ! R24   R(22,23)                0.9599         estimate D2E/DX2                !
 ! R25   R(22,24)                0.9598         estimate D2E/DX2                !
 ! R26   R(22,25)                0.9606         estimate D2E/DX2                !
 ! R27   R(26,27)                0.9605         estimate D2E/DX2                !
 ! R28   R(26,28)                0.9595         estimate D2E/DX2                !
 ! R29   R(26,29)                0.9599         estimate D2E/DX2                !
 ! A1    A(4,3,6)              117.5635         estimate D2E/DX2                !
 ! A2    A(4,3,7)              117.6924         estimate D2E/DX2                !
 ! A3    A(6,3,7)              124.744          estimate D2E/DX2                !
 ! A4    A(7,5,8)              121.7144         estimate D2E/DX2                !
 ! A5    A(7,5,9)              120.3509         estimate D2E/DX2                !
 ! A6    A(8,5,9)              117.9323         estimate D2E/DX2                !
 ! A7    A(3,6,12)             119.609          estimate D2E/DX2                !
 ! A8    A(3,6,26)             113.0201         estimate D2E/DX2                !
 ! A9    A(12,6,26)            127.3708         estimate D2E/DX2                !
 ! A10   A(3,7,5)              120.1007         estimate D2E/DX2                !
 ! A11   A(3,7,14)             112.9411         estimate D2E/DX2                !
 ! A12   A(5,7,14)             126.9579         estimate D2E/DX2                !
 ! A13   A(2,8,5)              123.2909         estimate D2E/DX2                !
 ! A14   A(2,8,18)             118.8925         estimate D2E/DX2                !
 ! A15   A(5,8,18)             117.8164         estimate D2E/DX2                !
 ! A16   A(5,9,10)             108.6576         estimate D2E/DX2                !
 ! A17   A(5,9,11)             108.5917         estimate D2E/DX2                !
 ! A18   A(5,9,12)             114.4149         estimate D2E/DX2                !
 ! A19   A(10,9,11)            107.5833         estimate D2E/DX2                !
 ! A20   A(10,9,12)            108.6802         estimate D2E/DX2                !
 ! A21   A(11,9,12)            108.7065         estimate D2E/DX2                !
 ! A22   A(6,12,9)             120.7085         estimate D2E/DX2                !
 ! A23   A(6,12,13)            126.0404         estimate D2E/DX2                !
 ! A24   A(9,12,13)            113.2507         estimate D2E/DX2                !
 ! A25   A(1,13,12)            117.1786         estimate D2E/DX2                !
 ! A26   A(1,13,22)            117.6631         estimate D2E/DX2                !
 ! A27   A(12,13,22)           125.1583         estimate D2E/DX2                !
 ! A28   A(7,14,15)            109.517          estimate D2E/DX2                !
 ! A29   A(7,14,16)            109.4899         estimate D2E/DX2                !
 ! A30   A(7,14,17)            109.4609         estimate D2E/DX2                !
 ! A31   A(15,14,16)           109.5117         estimate D2E/DX2                !
 ! A32   A(15,14,17)           109.4599         estimate D2E/DX2                !
 ! A33   A(16,14,17)           109.3878         estimate D2E/DX2                !
 ! A34   A(8,18,19)            109.5178         estimate D2E/DX2                !
 ! A35   A(8,18,20)            109.4868         estimate D2E/DX2                !
 ! A36   A(8,18,21)            109.4442         estimate D2E/DX2                !
 ! A37   A(19,18,20)           109.5217         estimate D2E/DX2                !
 ! A38   A(19,18,21)           109.42           estimate D2E/DX2                !
 ! A39   A(20,18,21)           109.4367         estimate D2E/DX2                !
 ! A40   A(13,22,23)           109.4516         estimate D2E/DX2                !
 ! A41   A(13,22,24)           109.5211         estimate D2E/DX2                !
 ! A42   A(13,22,25)           109.4989         estimate D2E/DX2                !
 ! A43   A(23,22,24)           109.4558         estimate D2E/DX2                !
 ! A44   A(23,22,25)           109.406          estimate D2E/DX2                !
 ! A45   A(24,22,25)           109.4938         estimate D2E/DX2                !
 ! A46   A(6,26,27)            109.4576         estimate D2E/DX2                !
 ! A47   A(6,26,28)            109.4768         estimate D2E/DX2                !
 ! A48   A(6,26,29)            109.4105         estimate D2E/DX2                !
 ! A49   A(27,26,28)           109.4864         estimate D2E/DX2                !
 ! A50   A(27,26,29)           109.4486         estimate D2E/DX2                !
 ! A51   A(28,26,29)           109.5474         estimate D2E/DX2                !
 ! D1    D(4,3,6,12)          -178.1027         estimate D2E/DX2                !
 ! D2    D(4,3,6,26)             1.8261         estimate D2E/DX2                !
 ! D3    D(7,3,6,12)             1.9102         estimate D2E/DX2                !
 ! D4    D(7,3,6,26)          -178.161          estimate D2E/DX2                !
 ! D5    D(4,3,7,5)            178.0784         estimate D2E/DX2                !
 ! D6    D(4,3,7,14)            -2.0821         estimate D2E/DX2                !
 ! D7    D(6,3,7,5)             -1.9345         estimate D2E/DX2                !
 ! D8    D(6,3,7,14)           177.905          estimate D2E/DX2                !
 ! D9    D(8,5,7,3)            179.0531         estimate D2E/DX2                !
 ! D10   D(8,5,7,14)            -0.762          estimate D2E/DX2                !
 ! D11   D(9,5,7,3)             -0.3755         estimate D2E/DX2                !
 ! D12   D(9,5,7,14)           179.8094         estimate D2E/DX2                !
 ! D13   D(7,5,8,2)             -1.2298         estimate D2E/DX2                !
 ! D14   D(7,5,8,18)           178.6216         estimate D2E/DX2                !
 ! D15   D(9,5,8,2)            178.2121         estimate D2E/DX2                !
 ! D16   D(9,5,8,18)            -1.9364         estimate D2E/DX2                !
 ! D17   D(7,5,9,10)           123.9971         estimate D2E/DX2                !
 ! D18   D(7,5,9,11)          -119.2603         estimate D2E/DX2                !
 ! D19   D(7,5,9,12)             2.361          estimate D2E/DX2                !
 ! D20   D(8,5,9,10)           -55.4528         estimate D2E/DX2                !
 ! D21   D(8,5,9,11)            61.2898         estimate D2E/DX2                !
 ! D22   D(8,5,9,12)          -177.0889         estimate D2E/DX2                !
 ! D23   D(3,6,12,9)             0.4125         estimate D2E/DX2                !
 ! D24   D(3,6,12,13)         -179.8367         estimate D2E/DX2                !
 ! D25   D(26,6,12,9)         -179.505          estimate D2E/DX2                !
 ! D26   D(26,6,12,13)           0.2457         estimate D2E/DX2                !
 ! D27   D(3,6,26,27)          121.4111         estimate D2E/DX2                !
 ! D28   D(3,6,26,28)         -118.5751         estimate D2E/DX2                !
 ! D29   D(3,6,26,29)            1.4843         estimate D2E/DX2                !
 ! D30   D(12,6,26,27)         -58.6667         estimate D2E/DX2                !
 ! D31   D(12,6,26,28)          61.347          estimate D2E/DX2                !
 ! D32   D(12,6,26,29)        -178.5935         estimate D2E/DX2                !
 ! D33   D(3,7,14,15)            8.8826         estimate D2E/DX2                !
 ! D34   D(3,7,14,16)          128.9718         estimate D2E/DX2                !
 ! D35   D(3,7,14,17)         -111.1253         estimate D2E/DX2                !
 ! D36   D(5,7,14,15)         -171.2911         estimate D2E/DX2                !
 ! D37   D(5,7,14,16)          -51.2019         estimate D2E/DX2                !
 ! D38   D(5,7,14,17)           68.701          estimate D2E/DX2                !
 ! D39   D(2,8,18,19)            4.4419         estimate D2E/DX2                !
 ! D40   D(2,8,18,20)          124.5419         estimate D2E/DX2                !
 ! D41   D(2,8,18,21)         -115.5074         estimate D2E/DX2                !
 ! D42   D(5,8,18,19)         -175.4163         estimate D2E/DX2                !
 ! D43   D(5,8,18,20)          -55.3163         estimate D2E/DX2                !
 ! D44   D(5,8,18,21)           64.6345         estimate D2E/DX2                !
 ! D45   D(5,9,12,6)            -2.3854         estimate D2E/DX2                !
 ! D46   D(5,9,12,13)          177.834          estimate D2E/DX2                !
 ! D47   D(10,9,12,6)         -124.0091         estimate D2E/DX2                !
 ! D48   D(10,9,12,13)          56.2103         estimate D2E/DX2                !
 ! D49   D(11,9,12,6)          119.1729         estimate D2E/DX2                !
 ! D50   D(11,9,12,13)         -60.6077         estimate D2E/DX2                !
 ! D51   D(6,12,13,1)          178.3653         estimate D2E/DX2                !
 ! D52   D(6,12,13,22)          -1.6951         estimate D2E/DX2                !
 ! D53   D(9,12,13,1)           -1.8679         estimate D2E/DX2                !
 ! D54   D(9,12,13,22)         178.0717         estimate D2E/DX2                !
 ! D55   D(1,13,22,23)         123.267          estimate D2E/DX2                !
 ! D56   D(1,13,22,24)        -116.7333         estimate D2E/DX2                !
 ! D57   D(1,13,22,25)           3.3419         estimate D2E/DX2                !
 ! D58   D(12,13,22,23)        -56.6723         estimate D2E/DX2                !
 ! D59   D(12,13,22,24)         63.3273         estimate D2E/DX2                !
 ! D60   D(12,13,22,25)       -176.5975         estimate D2E/DX2                !
 --------------------------------------------------------------------------------
 Trust Radius=3.00D-01 FncErr=1.00D-07 GrdErr=1.00D-06 EigMax=2.50D+02 EigMin=1.00D-04
 Number of steps in this run=    150 maximum allowed number of steps=    174.
 GradGradGradGradGradGradGradGradGradGradGradGradGradGradGradGradGradGrad

 Leave Link  103 at Tue Jan 20 17:35:15 2026, MaxMem=  2147483648 cpu:               0.2 elap:               0.0
 (Enter /data/home/wyx/g16/l202.exe)
                          Input orientation:                          
 ---------------------------------------------------------------------
 Center     Atomic      Atomic             Coordinates (Angstroms)
 Number     Number       Type             X           Y           Z
 ---------------------------------------------------------------------
      1          8           0        1.300339    9.824477    0.889000
      2          8           0       -4.900661    9.752477   -0.049000
      3          7           0       -2.119661   12.933477    0.232000
      4          1           0       -2.380661   13.749477    0.154000
      5          6           0       -2.705661   10.633477    0.189000
      6          6           0       -0.781661   12.712477    0.467000
      7          6           0       -3.070661   11.942477    0.113000
      8          6           0       -3.686661    9.555477    0.088000
      9          6           0       -1.253661   10.254477    0.396000
     10          1           0       -1.188661    9.694477    1.185000
     11          1           0       -0.960661    9.726477   -0.363000
     12          6           0       -0.315661   11.433477    0.559000
     13          6           0        1.063339   11.040477    0.806000
     14          6           0       -4.455661   12.482477   -0.092000
     15          1           0       -4.411661   13.429477   -0.242000
     16          1           0       -4.856661   12.055477   -0.853000
     17          1           0       -4.986661   12.306477    0.689000
     18          6           0       -3.181661    8.136477    0.152000
     19          1           0       -3.910661    7.529477    0.003000
     20          1           0       -2.511661    8.004477   -0.522000
     21          1           0       -2.800661    7.971477    1.018000
     22          6           0        2.222339   11.992477    0.967000
     23          1           0        2.286339   12.552477    0.190000
     24          1           0        2.083339   12.538477    1.744000
     25          1           0        3.036339   11.492477    1.068000
     26          6           0        0.013339   13.987477    0.593000
     27          1           0        0.442339   14.013477    1.452000
     28          1           0        0.678339   14.019477   -0.098000
     29          1           0       -0.575661   14.740477    0.507000
 ---------------------------------------------------------------------
                    Distance matrix (angstroms):
                    1          2          3          4          5
     1  O    0.000000
     2  O    6.271956   0.000000
     3  N    4.668397   4.234582   0.000000
     4  H    5.430986   4.729442   0.860268   0.000000
     5  C    4.146386   2.377147   2.373867   3.133098   0.000000
     6  C    3.585157   5.098433   1.376339   1.931357   2.846278
     7  C    4.918713   2.858539   1.378638   1.934691   1.361059
     8  C    5.058076   1.237487   3.726541   4.393134   1.461043
     9  C    2.636449   3.708185   2.820265   3.680179   1.514858
    10  H    2.509908   3.912169   3.502298   4.350500   2.043288
    11  H    2.586354   3.952578   3.461525   4.297466   2.042640
    12  C    2.304178   4.921143   2.368828   3.129234   2.547352
    13  C    1.241658   6.161109   3.747588   4.430002   3.840794
    14  C    6.415517   2.766365   2.401098   2.443651   2.561301
    15  H    6.848513   3.714391   2.392479   2.093843   3.303606
    16  H    6.776472   2.439705   3.072341   3.164532   2.781124
    17  H    6.762152   2.659879   2.970129   3.026501   2.872610
    18  C    4.845703   2.367872   4.913802   5.669865   2.542234
    19  H    5.762512   2.434036   5.697661   6.407191   3.334882
    20  H    4.453613   2.997758   5.001722   5.786118   2.730348
    21  H    4.502050   2.953041   5.069813   5.857318   2.789715
    22  C    2.357200   7.535714   4.503184   4.993559   5.170817
    23  H    2.983753   7.716870   4.422642   4.818194   5.348142
    24  H    2.951256   7.730000   4.484125   4.891004   5.383453
    25  H    2.414117   8.201906   5.418460   5.939136   5.872060
    26  C    4.367443   6.518802   2.406434   2.445527   4.336530
    27  H    4.312871   6.996912   3.036222   3.118305   4.788473
    28  H    4.354202   7.023883   3.019454   3.081215   4.795709
    29  H    5.275638   6.625323   2.392658   2.089190   4.637399
                    6          7          8          9         10
     6  C    0.000000
     7  C    2.440848   0.000000
     8  C    4.306892   2.465330   0.000000
     9  C    2.503915   2.496181   2.550089   0.000000
    10  H    3.128817   3.121636   2.731801   0.969714   0.000000
    11  H    3.104374   3.096665   2.768342   0.969904   1.565028
    12  C    1.364354   2.836904   3.887463   1.515406   2.044046
    13  C    2.512873   4.287634   5.028245   2.480803   2.650823
    14  C    3.723393   1.500617   3.031681   3.931276   4.480732
    15  H    3.767449   2.033587   3.955048   4.523343   5.135590
    16  H    4.333552   2.033647   2.916227   4.217252   4.814768
    17  H    4.230384   2.033551   3.101484   4.269876   4.636094
    18  C    5.176775   3.807818   1.507542   2.874482   2.732490
    19  H    6.072020   4.493581   2.040117   3.826189   3.673368
    20  H    5.112366   4.027847   2.039197   2.736382   2.742313
    21  H    5.182378   4.081760   2.039351   2.827045   2.365409
    22  C    3.129284   5.361685   6.451968   3.928010   4.118647
    23  H    3.084632   5.392168   6.683498   4.225499   4.608016
    24  H    3.141533   5.438666   6.703247   4.262550   4.371133
    25  H    4.052990   6.197578   7.064779   4.515344   4.593160
    26  C    1.507822   3.731418   5.795485   3.947073   4.497234
    27  H    2.039853   4.292217   6.227592   4.256951   4.624415
    28  H    2.039381   4.291090   6.246208   4.260503   4.882356
    29  H    2.038828   3.769491   6.061197   4.538304   5.128116
                   11         12         13         14         15
    11  H    0.000000
    12  C    2.044495   0.000000
    13  C    2.681368   1.455025   0.000000
    14  C    4.459148   4.320162   5.774524   0.000000
    15  H    5.063225   4.626320   6.064755   0.959815   0.000000
    16  H    4.565431   4.795968   6.231284   0.960339   1.568191
    17  H    4.896098   4.753659   6.182147   0.960676   1.567965
    18  C    2.779598   4.387461   5.184685   4.535452   5.448301
    19  H    3.696385   5.336139   6.141059   4.983800   5.926300
    20  H    2.322965   4.212958   4.874577   4.900665   5.754913
    21  H    2.893577   4.286181   4.939049   4.931556   5.828609
    22  C    4.127365   2.630663   1.508478   6.779179   6.894680
    23  H    4.339942   2.856348   2.039934   6.748258   6.768970
    24  H    4.648949   2.894901   2.040649   6.792095   6.850044
    25  H    4.598100   3.390939   2.040999   7.645637   7.806457
    26  C    4.474230   2.575328   3.135710   4.765103   4.537534
    27  H    4.862201   2.833445   3.105106   5.358946   5.174167
    28  H    4.602868   2.847294   3.136859   5.359138   5.126103
    29  H    5.103462   3.317613   4.057798   4.528992   4.122453
                   16         17         18         19         20
    16  H    0.000000
    17  H    1.567694   0.000000
    18  C    4.378837   4.575510   0.000000
    19  H    4.702375   4.944502   0.960256   0.000000
    20  H    4.692461   5.108752   0.959479   1.567945   0.000000
    21  H    4.940327   4.866114   0.960386   1.567702   1.567230
    22  C    7.309488   7.221188   6.688511   7.646002   6.366476
    23  H    7.235835   7.294247   7.028622   7.979242   6.649214
    24  H    7.425719   7.152045   7.045019   8.003074   6.841486
    25  H    8.142890   8.073089   7.124978   8.068482   6.743482
    26  C    5.435112   5.275886   6.681071   7.579686   6.589017
    27  H    6.101327   5.741956   7.025846   7.942951   6.980750
    28  H    5.921448   5.970424   7.040724   7.949165   6.821737
    29  H    5.233143   5.041270   7.108451   7.960827   7.083829
                   21         22         23         24         25
    21  H    0.000000
    22  C    6.434405   0.000000
    23  H    6.895558   0.959909   0.000000
    24  H    6.725922   0.959774   1.567265   0.000000
    25  H    6.816928   0.960623   1.567477   1.568216   0.000000
    26  C    6.655184   2.999930   2.718118   2.776563   3.948313
    27  H    6.871038   2.736433   2.669738   2.225707   3.637545
    28  H    7.065918   2.761682   2.195609   2.749609   3.647663
    29  H    7.143606   3.948659   3.616473   3.667322   4.889864
                   26         27         28         29
    26  C    0.000000
    27  H    0.960520   0.000000
    28  H    0.959547   1.567875   0.000000
    29  H    0.959857   1.567762   1.567923   0.000000
 Stoichiometry    C11H15NO2
 Framework group  C1[X(C11H15NO2)]
 Deg. of freedom    81
 Full point group                 C1      NOp   1
 Largest Abelian subgroup         C1      NOp   1
 Largest concise Abelian subgroup C1      NOp   1
                         Standard orientation:                         
 ---------------------------------------------------------------------
 Center     Atomic      Atomic             Coordinates (Angstroms)
 Number     Number       Type             X           Y           Z
 ---------------------------------------------------------------------
      1          8           0        2.244800   -2.287581    0.035733
      2          8           0       -3.677612   -0.223271    0.068666
      3          7           0        0.029462    1.821203   -0.028309
      4          1           0        0.053268    2.680856   -0.050468
      5          6           0       -1.303500   -0.143077   -0.020721
      6          6           0        1.231488    1.151124   -0.007396
      7          6           0       -1.208517    1.214655   -0.016062
      8          6           0       -2.596442   -0.822672    0.012414
      9          6           0       -0.053088   -0.997785   -0.047925
     10          1           0       -0.072754   -1.600554    0.711435
     11          1           0       -0.066207   -1.539437   -0.852385
     12          6           0        1.242870   -0.213176   -0.011368
     13          6           0        2.426224   -1.059478    0.012000
     14          6           0       -2.341602    2.198272    0.005589
     15          1           0       -1.999676    3.084403   -0.132624
     16          1           0       -2.966069    1.983074   -0.691535
     17          1           0       -2.786098    2.155797    0.856187
     18          6           0       -2.600304   -2.329674   -0.027737
     19          1           0       -3.505463   -2.647093   -0.072717
     20          1           0       -2.116302   -2.630535   -0.799633
     21          1           0       -2.181035   -2.671705    0.765718
     22          6           0        3.850250   -0.561843    0.008322
     23          1           0        3.991561   -0.002907   -0.759172
     24          1           0        4.015222   -0.055848    0.807020
     25          1           0        4.451377   -1.310310   -0.026882
     26          6           0        2.421926    2.076226    0.016469
     27          1           0        2.949794    1.898268    0.798955
     28          1           0        2.954661    1.932410   -0.768541
     29          1           0        2.118160    2.986537    0.036109
 ---------------------------------------------------------------------
 Rotational constants (GHZ):           1.1150777           0.4851146           0.3409496
 Leave Link  202 at Tue Jan 20 17:35:15 2026, MaxMem=  2147483648 cpu:               0.1 elap:               0.0
 (Enter /data/home/wyx/g16/l301.exe)
 Standard basis: TZVP (5D, 7F)
 Ernie: Thresh=  0.10000D-02 Tol=  0.10000D-05 Strict=F.
 There are   370 symmetry adapted cartesian basis functions of A   symmetry.
 There are   356 symmetry adapted basis functions of A   symmetry.
   356 basis functions,   610 primitive gaussians,   370 cartesian basis functions
    52 alpha electrons       52 beta electrons
       nuclear repulsion energy       908.5842081229 Hartrees.
 IExCor=20419 DFT=T Ex+Corr=CAM-B3LYP ExCW=0 ScaHFX=  1.000000
 ScaDFX=  1.000000  1.000000  1.000000  0.810000 ScalE2=  1.000000  1.000000
 IRadAn=      5 IRanWt=     -1 IRanGd=            0 ICorTp=0 IEmpDi=141
 HFx  wShort=  0.000000 wLong=  0.330000 cFull=  0.190000 cShort=  0.000000 cLong=  0.460000
 DFx  wShort=  0.000000 wLong=  0.330000 cFull=  0.190000 cShort=  0.000000 cLong=  0.460000
 NAtoms=   29 NActive=   29 NUniq=   29 SFac= 1.00D+00 NAtFMM=   60 NAOKFM=F Big=F
 Integral buffers will be    131072 words long.
 Raffenetti 2 integral format.
 Two-electron integral symmetry is turned on.
 R6Disp:  Grimme-D3(BJ) Dispersion energy=       -0.0264949044 Hartrees.
 Nuclear repulsion after empirical dispersion term =      908.5577132186 Hartrees.
 ------------------------------------------------------------------------------
 Polarizable Continuum Model (PCM)
 =================================
 Model                : PCM.
 Atomic radii         : UFF (Universal Force Field).
 Polarization charges : Total charges.
 Charge compensation  : None.
 Solution method      : On-the-fly selection.
 Cavity type          : Scaled VdW (van der Waals Surface) (Alpha=1.100).
 Cavity algorithm     : GePol (No added spheres)
                        Default sphere list used, NSphG=   29.
                        Lebedev-Laikov grids with approx.  5.0 points / Ang**2.
                        Smoothing algorithm: York/Karplus (Gamma=1.0000).
                        Polarization charges: spherical gaussians, with
                                              point-specific exponents (IZeta= 3).
                        Self-potential: point-specific (ISelfS= 7).
                        Self-field    : sphere-specific E.n sum rule (ISelfD= 2).
 1st derivatives      : Analytical E(r).r(x)/FMM algorithm (CHGder, D1EAlg=3).
                        Cavity 1st derivative terms included.
 Solvent              : TetraHydroFuran, Eps=   7.425700 Eps(inf)=   1.974025
 ------------------------------------------------------------------------------
 GePol: Number of generator spheres                  =      29
 GePol: Total number of spheres                      =      29
 GePol: Number of exposed spheres                    =      29 (100.00%)
 GePol: Number of points                             =    2079
 GePol: Average weight of points                     =       0.12
 GePol: Minimum weight of points                     =   0.23D-11
 GePol: Maximum weight of points                     =    0.20577
 GePol: Number of points with low weight             =     135
 GePol: Fraction of low-weight points (<1% of avg)   =       6.49%
 GePol: Cavity surface area                          =    258.713 Ang**2
 GePol: Cavity volume                                =    275.401 Ang**3
 Leave Link  301 at Tue Jan 20 17:35:15 2026, MaxMem=  2147483648 cpu:               1.1 elap:               0.0
 (Enter /data/home/wyx/g16/l302.exe)
 NPDir=0 NMtPBC=     1 NCelOv=     1 NCel=       1 NClECP=     1 NCelD=      1
         NCelK=      1 NCelE2=     1 NClLst=     1 CellRange=     0.0.
 One-electron integrals computed using PRISM.
 One-electron integral symmetry used in STVInt
 NBasis=   356 RedAO= T EigKep=  3.04D-05  NBF=   356
 NBsUse=   356 1.00D-06 EigRej= -1.00D+00 NBFU=   356
 Precomputing XC quadrature grid using
 IXCGrd= 4 IRadAn=           5 IRanWt=          -1 IRanGd=           0 AccXCQ= 0.00D+00.
 Generated NRdTot=       0 NPtTot=           0 NUsed=           0 NTot=          32
 NSgBfM=   366   365   366   366   366 MxSgAt=    29 MxSgA2=    29.
 Leave Link  302 at Tue Jan 20 17:35:16 2026, MaxMem=  2147483648 cpu:               6.2 elap:               0.2
 (Enter /data/home/wyx/g16/l303.exe)
 DipDrv:  MaxL=1.
 Leave Link  303 at Tue Jan 20 17:35:16 2026, MaxMem=  2147483648 cpu:               1.1 elap:               0.0
 (Enter /data/home/wyx/g16/l401.exe)
 ExpMin= 9.52D-02 ExpMax= 2.70D+04 ExpMxC= 9.22D+02 IAcc=3 IRadAn=         5 AccDes= 0.00D+00
 Harris functional with IExCor=20419 and IRadAn=       5 diagonalized for initial guess.
 HarFok:  IExCor=20419 AccDes= 0.00D+00 IRadAn=         5 IDoV= 1 UseB2=F ITyADJ=14
 ICtDFT=  3500011 ScaDFX=  1.000000  1.000000  1.000000  1.000000
 FoFCou: FMM=F IPFlag=           0 FMFlag=      100000 FMFlg1=           0
         NFxFlg=           0 DoJE=T BraDBF=F KetDBF=T FulRan=T
         wScrn=  0.000000 ICntrl=       500 IOpCl=  0 I1Cent=   200000004 NGrid=           0
         NMat0=    1 NMatS0=      1 NMatT0=    0 NMatD0=    1 NMtDS0=    0 NMtDT0=    0
 Petite list used in FoFCou.
 Harris En= -608.509083072930    
 JPrj=0 DoOrth=F DoCkMO=F.
 Leave Link  401 at Tue Jan 20 17:35:17 2026, MaxMem=  2147483648 cpu:              18.0 elap:               0.6
 (Enter /data/home/wyx/g16/l502.exe)
 Integral symmetry usage will be decided dynamically.
 Closed shell SCF:
 Using DIIS extrapolation, IDIIS=  1040.
 NGot=  2147483648 LenX=  2147194175 LenY=  2147056834
 Requested convergence on RMS density matrix=1.00D-08 within 128 cycles.
 Requested convergence on MAX density matrix=1.00D-06.
 Requested convergence on             energy=1.00D-06.
 No special actions if energy rises.
 Fock matrices will be formed incrementally for  20 cycles.

 Cycle   1  Pass 1  IDiag  1:
 FoFJK:  IHMeth= 1 ICntrl=       0 DoSepK=T KAlg= 0 I1Cent=           0 FoldK=F
 IRaf=         1 NMat=       1 IRICut=       1 DoRegI=T DoRafI=F ISym2E= 0 IDoP0=0 IntGTp=1.
 FoFCou: FMM=F IPFlag=           0 FMFlag=      100000 FMFlg1=           0
         NFxFlg=           0 DoJE=T BraDBF=F KetDBF=F FulRan=T
         wScrn=  0.000000 ICntrl=       500 IOpCl=  0 I1Cent=           0 NGrid=           0
         NMat0=    1 NMatS0=      1 NMatT0=    0 NMatD0=    1 NMtDS0=    0 NMtDT0=    0
 Symmetry not used in FoFCou.
 Inv3:  Mode=1 IEnd=    12966723.
 Iteration    1 A*A^-1 deviation from unit magnitude is 3.55D-15 for   1625.
 Iteration    1 A*A^-1 deviation from orthogonality  is 1.73D-15 for    507    332.
 Iteration    1 A^-1*A deviation from unit magnitude is 3.33D-15 for   1625.
 Iteration    1 A^-1*A deviation from orthogonality  is 2.33D-15 for   1480   1093.
 E= -632.807952397098    
 DIIS: error= 4.06D-02 at cycle   1 NSaved=   1.
 NSaved= 1 IEnMin= 1 EnMin= -632.807952397098     IErMin= 1 ErrMin= 4.06D-02
 ErrMax= 4.06D-02  0.00D+00 EMaxC= 1.00D-01 BMatC= 1.21D+00 BMatP= 1.21D+00
 IDIUse=3 WtCom= 5.94D-01 WtEn= 4.06D-01
 Coeff-Com:  0.100D+01
 Coeff-En:   0.100D+01
 Coeff:      0.100D+01
 Gap=     0.227 Goal=   None    Shift=    0.000
 GapD=    0.227 DampG=1.000 DampE=0.500 DampFc=0.5000 IDamp=-1.
 Damping current iteration by 5.00D-01
 RMSDP=4.46D-03 MaxDP=1.93D-01              OVMax= 1.26D-01

 Cycle   2  Pass 1  IDiag  1:
 RMSU=  1.96D-03    CP:  9.23D-01
 E= -632.966748006877     Delta-E=       -0.158795609779 Rises=F Damp=T
 DIIS: error= 2.06D-02 at cycle   2 NSaved=   2.
 NSaved= 2 IEnMin= 2 EnMin= -632.966748006877     IErMin= 2 ErrMin= 2.06D-02
 ErrMax= 2.06D-02  0.00D+00 EMaxC= 1.00D-01 BMatC= 2.24D-01 BMatP= 1.21D+00
 IDIUse=3 WtCom= 7.94D-01 WtEn= 2.06D-01
 Coeff-Com: -0.503D+00 0.150D+01
 Coeff-En:   0.000D+00 0.100D+01
 Coeff:     -0.399D+00 0.140D+01
 Gap=     0.249 Goal=   None    Shift=    0.000
 RMSDP=1.48D-03 MaxDP=7.77D-02 DE=-1.59D-01 OVMax= 9.95D-02

 Cycle   3  Pass 1  IDiag  1:
 RMSU=  1.45D-03    CP:  9.05D-01  1.08D+00
 E= -633.082937101176     Delta-E=       -0.116189094299 Rises=F Damp=F
 DIIS: error= 9.38D-03 at cycle   3 NSaved=   3.
 NSaved= 3 IEnMin= 3 EnMin= -633.082937101176     IErMin= 3 ErrMin= 9.38D-03
 ErrMax= 9.38D-03  0.00D+00 EMaxC= 1.00D-01 BMatC= 4.48D-02 BMatP= 2.24D-01
 IDIUse=3 WtCom= 9.06D-01 WtEn= 9.38D-02
 Coeff-Com: -0.280D+00 0.633D+00 0.647D+00
 Coeff-En:   0.000D+00 0.000D+00 0.100D+01
 Coeff:     -0.254D+00 0.574D+00 0.680D+00
 Gap=     0.239 Goal=   None    Shift=    0.000
 RMSDP=1.54D-03 MaxDP=6.65D-02 DE=-1.16D-01 OVMax= 5.70D-02

 Cycle   4  Pass 1  IDiag  1:
 RMSU=  6.96D-04    CP:  8.46D-01  1.56D+00  6.04D-01
 E= -633.112980886720     Delta-E=       -0.030043785545 Rises=F Damp=F
 DIIS: error= 4.56D-03 at cycle   4 NSaved=   4.
 NSaved= 4 IEnMin= 4 EnMin= -633.112980886720     IErMin= 4 ErrMin= 4.56D-03
 ErrMax= 4.56D-03  0.00D+00 EMaxC= 1.00D-01 BMatC= 8.48D-03 BMatP= 4.48D-02
 IDIUse=3 WtCom= 9.54D-01 WtEn= 4.56D-02
 Coeff-Com: -0.137D+00 0.300D+00 0.405D+00 0.431D+00
 Coeff-En:   0.000D+00 0.000D+00 0.869D-01 0.913D+00
 Coeff:     -0.131D+00 0.287D+00 0.391D+00 0.453D+00
 Gap=     0.238 Goal=   None    Shift=    0.000
 RMSDP=4.25D-04 MaxDP=2.21D-02 DE=-3.00D-02 OVMax= 1.66D-02

 Cycle   5  Pass 1  IDiag  1:
 RMSU=  1.15D-04    CP:  8.61D-01  1.48D+00  7.34D-01  6.43D-01
 E= -633.119189413414     Delta-E=       -0.006208526693 Rises=F Damp=F
 DIIS: error= 5.07D-04 at cycle   5 NSaved=   5.
 NSaved= 5 IEnMin= 5 EnMin= -633.119189413414     IErMin= 5 ErrMin= 5.07D-04
 ErrMax= 5.07D-04  0.00D+00 EMaxC= 1.00D-01 BMatC= 8.40D-05 BMatP= 8.48D-03
 IDIUse=3 WtCom= 9.95D-01 WtEn= 5.07D-03
 Coeff-Com: -0.362D-01 0.789D-01 0.114D+00 0.168D+00 0.675D+00
 Coeff-En:   0.000D+00 0.000D+00 0.000D+00 0.000D+00 0.100D+01
 Coeff:     -0.360D-01 0.785D-01 0.114D+00 0.167D+00 0.677D+00
 Gap=     0.238 Goal=   None    Shift=    0.000
 RMSDP=1.16D-04 MaxDP=9.23D-03 DE=-6.21D-03 OVMax= 1.98D-03

 Cycle   6  Pass 1  IDiag  1:
 RMSU=  4.56D-05    CP:  8.56D-01  1.50D+00  7.37D-01  7.36D-01  1.00D+00
 E= -633.119244612530     Delta-E=       -0.000055199117 Rises=F Damp=F
 DIIS: error= 3.32D-04 at cycle   6 NSaved=   6.
 NSaved= 6 IEnMin= 6 EnMin= -633.119244612530     IErMin= 6 ErrMin= 3.32D-04
 ErrMax= 3.32D-04  0.00D+00 EMaxC= 1.00D-01 BMatC= 1.70D-05 BMatP= 8.40D-05
 IDIUse=3 WtCom= 9.97D-01 WtEn= 3.32D-03
 Coeff-Com:  0.983D-02-0.218D-01-0.245D-01-0.600D-02 0.356D+00 0.686D+00
 Coeff-En:   0.000D+00 0.000D+00 0.000D+00 0.000D+00 0.664D-01 0.934D+00
 Coeff:      0.980D-02-0.217D-01-0.244D-01-0.598D-02 0.355D+00 0.687D+00
 Gap=     0.239 Goal=   None    Shift=    0.000
 RMSDP=2.03D-05 MaxDP=7.90D-04 DE=-5.52D-05 OVMax= 2.90D-03

 Cycle   7  Pass 1  IDiag  1:
 RMSU=  1.76D-05    CP:  8.56D-01  1.50D+00  7.40D-01  7.37D-01  1.05D+00
                    CP:  8.86D-01
 E= -633.119262247727     Delta-E=       -0.000017635196 Rises=F Damp=F
 DIIS: error= 4.80D-05 at cycle   7 NSaved=   7.
 NSaved= 7 IEnMin= 7 EnMin= -633.119262247727     IErMin= 7 ErrMin= 4.80D-05
 ErrMax= 4.80D-05  0.00D+00 EMaxC= 1.00D-01 BMatC= 1.41D-06 BMatP= 1.70D-05
 IDIUse=1 WtCom= 1.00D+00 WtEn= 0.00D+00
 Coeff-Com:  0.615D-02-0.136D-01-0.168D-01-0.168D-01 0.497D-01 0.280D+00
 Coeff-Com:  0.711D+00
 Coeff:      0.615D-02-0.136D-01-0.168D-01-0.168D-01 0.497D-01 0.280D+00
 Coeff:      0.711D+00
 Gap=     0.239 Goal=   None    Shift=    0.000
 RMSDP=1.83D-05 MaxDP=8.94D-04 DE=-1.76D-05 OVMax= 4.72D-04

 Cycle   8  Pass 1  IDiag  1:
 RMSU=  5.22D-06    CP:  8.56D-01  1.51D+00  7.41D-01  7.50D-01  1.11D+00
                    CP:  9.77D-01  9.19D-01
 E= -633.119263858837     Delta-E=       -0.000001611110 Rises=F Damp=F
 DIIS: error= 1.43D-05 at cycle   8 NSaved=   8.
 NSaved= 8 IEnMin= 8 EnMin= -633.119263858837     IErMin= 8 ErrMin= 1.43D-05
 ErrMax= 1.43D-05  0.00D+00 EMaxC= 1.00D-01 BMatC= 9.16D-08 BMatP= 1.41D-06
 IDIUse=1 WtCom= 1.00D+00 WtEn= 0.00D+00
 Coeff-Com:  0.107D-03-0.179D-03-0.527D-03-0.323D-02-0.430D-01-0.144D-02
 Coeff-Com:  0.985D-01 0.950D+00
 Coeff:      0.107D-03-0.179D-03-0.527D-03-0.323D-02-0.430D-01-0.144D-02
 Coeff:      0.985D-01 0.950D+00
 Gap=     0.239 Goal=   None    Shift=    0.000
 RMSDP=5.46D-06 MaxDP=4.08D-04 DE=-1.61D-06 OVMax= 3.51D-04

 Cycle   9  Pass 1  IDiag  1:
 RMSU=  1.61D-06    CP:  8.55D-01  1.51D+00  7.41D-01  7.55D-01  1.11D+00
                    CP:  1.03D+00  9.71D-01  1.18D+00
 E= -633.119264052482     Delta-E=       -0.000000193645 Rises=F Damp=F
 DIIS: error= 4.23D-06 at cycle   9 NSaved=   9.
 NSaved= 9 IEnMin= 9 EnMin= -633.119264052482     IErMin= 9 ErrMin= 4.23D-06
 ErrMax= 4.23D-06  0.00D+00 EMaxC= 1.00D-01 BMatC= 1.17D-08 BMatP= 9.16D-08
 IDIUse=1 WtCom= 1.00D+00 WtEn= 0.00D+00
 Coeff-Com: -0.579D-03 0.130D-02 0.152D-02 0.621D-03-0.188D-01-0.219D-01
 Coeff-Com: -0.496D-01 0.280D+00 0.807D+00
 Coeff:     -0.579D-03 0.130D-02 0.152D-02 0.621D-03-0.188D-01-0.219D-01
 Coeff:     -0.496D-01 0.280D+00 0.807D+00
 Gap=     0.239 Goal=   None    Shift=    0.000
 RMSDP=1.71D-06 MaxDP=1.14D-04 DE=-1.94D-07 OVMax= 1.07D-04

 Cycle  10  Pass 1  IDiag  1:
 RMSU=  6.95D-07    CP:  8.55D-01  1.51D+00  7.41D-01  7.56D-01  1.12D+00
                    CP:  1.04D+00  9.89D-01  1.27D+00  1.11D+00
 E= -633.119264069584     Delta-E=       -0.000000017101 Rises=F Damp=F
 DIIS: error= 2.60D-06 at cycle  10 NSaved=  10.
 NSaved=10 IEnMin=10 EnMin= -633.119264069584     IErMin=10 ErrMin= 2.60D-06
 ErrMax= 2.60D-06  0.00D+00 EMaxC= 1.00D-01 BMatC= 2.97D-09 BMatP= 1.17D-08
 IDIUse=1 WtCom= 1.00D+00 WtEn= 0.00D+00
 Coeff-Com: -0.305D-03 0.673D-03 0.829D-03 0.602D-03-0.547D-02-0.992D-02
 Coeff-Com: -0.363D-01 0.380D-01 0.412D+00 0.600D+00
 Coeff:     -0.305D-03 0.673D-03 0.829D-03 0.602D-03-0.547D-02-0.992D-02
 Coeff:     -0.363D-01 0.380D-01 0.412D+00 0.600D+00
 Gap=     0.239 Goal=   None    Shift=    0.000
 RMSDP=4.68D-07 MaxDP=2.08D-05 DE=-1.71D-08 OVMax= 2.71D-05

 Cycle  11  Pass 1  IDiag  1:
 RMSU=  2.74D-07    CP:  8.55D-01  1.51D+00  7.41D-01  7.56D-01  1.12D+00
                    CP:  1.04D+00  9.85D-01  1.30D+00  1.20D+00  6.58D-01
 E= -633.119264072156     Delta-E=       -0.000000002572 Rises=F Damp=F
 DIIS: error= 8.59D-07 at cycle  11 NSaved=  11.
 NSaved=11 IEnMin=11 EnMin= -633.119264072156     IErMin=11 ErrMin= 8.59D-07
 ErrMax= 8.59D-07  0.00D+00 EMaxC= 1.00D-01 BMatC= 4.00D-10 BMatP= 2.97D-09
 IDIUse=1 WtCom= 1.00D+00 WtEn= 0.00D+00
 Coeff-Com: -0.568D-04 0.121D-03 0.165D-03 0.184D-03 0.229D-03-0.969D-03
 Coeff-Com: -0.104D-01-0.305D-01 0.681D-01 0.299D+00 0.674D+00
 Coeff:     -0.568D-04 0.121D-03 0.165D-03 0.184D-03 0.229D-03-0.969D-03
 Coeff:     -0.104D-01-0.305D-01 0.681D-01 0.299D+00 0.674D+00
 Gap=     0.239 Goal=   None    Shift=    0.000
 RMSDP=2.35D-07 MaxDP=1.64D-05 DE=-2.57D-09 OVMax= 9.86D-06

 Cycle  12  Pass 1  IDiag  1:
 RMSU=  6.73D-08    CP:  8.55D-01  1.51D+00  7.41D-01  7.56D-01  1.12D+00
                    CP:  1.04D+00  9.85D-01  1.31D+00  1.23D+00  8.24D-01
                    CP:  8.32D-01
 E= -633.119264072533     Delta-E=       -0.000000000377 Rises=F Damp=F
 DIIS: error= 2.01D-07 at cycle  12 NSaved=  12.
 NSaved=12 IEnMin=12 EnMin= -633.119264072533     IErMin=12 ErrMin= 2.01D-07
 ErrMax= 2.01D-07  0.00D+00 EMaxC= 1.00D-01 BMatC= 2.35D-11 BMatP= 4.00D-10
 IDIUse=1 WtCom= 1.00D+00 WtEn= 0.00D+00
 Coeff-Com:  0.174D-04-0.395D-04-0.422D-04-0.136D-04 0.692D-03 0.111D-02
 Coeff-Com:  0.988D-03-0.152D-01-0.260D-01 0.316D-01 0.236D+00 0.771D+00
 Coeff:      0.174D-04-0.395D-04-0.422D-04-0.136D-04 0.692D-03 0.111D-02
 Coeff:      0.988D-03-0.152D-01-0.260D-01 0.316D-01 0.236D+00 0.771D+00
 Gap=     0.239 Goal=   None    Shift=    0.000
 RMSDP=4.51D-08 MaxDP=2.29D-06 DE=-3.77D-10 OVMax= 2.77D-06

 Cycle  13  Pass 1  IDiag  1:
 RMSU=  2.85D-08    CP:  8.55D-01  1.51D+00  7.41D-01  7.56D-01  1.12D+00
                    CP:  1.04D+00  9.85D-01  1.31D+00  1.24D+00  8.11D-01
                    CP:  9.10D-01  1.12D+00
 E= -633.119264072569     Delta-E=       -0.000000000036 Rises=F Damp=F
 DIIS: error= 4.15D-08 at cycle  13 NSaved=  13.
 NSaved=13 IEnMin=13 EnMin= -633.119264072569     IErMin=13 ErrMin= 4.15D-08
 ErrMax= 4.15D-08  0.00D+00 EMaxC= 1.00D-01 BMatC= 1.11D-12 BMatP= 2.35D-11
 IDIUse=1 WtCom= 1.00D+00 WtEn= 0.00D+00
 Coeff-Com:  0.662D-05-0.146D-04-0.170D-04-0.122D-04 0.141D-03 0.313D-03
 Coeff-Com:  0.730D-03-0.168D-02-0.105D-01-0.128D-01 0.138D-01 0.187D+00
 Coeff-Com:  0.823D+00
 Coeff:      0.662D-05-0.146D-04-0.170D-04-0.122D-04 0.141D-03 0.313D-03
 Coeff:      0.730D-03-0.168D-02-0.105D-01-0.128D-01 0.138D-01 0.187D+00
 Coeff:      0.823D+00
 Gap=     0.239 Goal=   None    Shift=    0.000
 RMSDP=1.19D-08 MaxDP=5.36D-07 DE=-3.59D-11 OVMax= 6.00D-07

 Cycle  14  Pass 1  IDiag  1:
 RMSU=  6.49D-09    CP:  8.55D-01  1.51D+00  7.41D-01  7.56D-01  1.12D+00
                    CP:  1.04D+00  9.85D-01  1.31D+00  1.24D+00  8.14D-01
                    CP:  9.32D-01  1.17D+00  1.08D+00
 E= -633.119264072570     Delta-E=       -0.000000000002 Rises=F Damp=F
 DIIS: error= 2.19D-08 at cycle  14 NSaved=  14.
 NSaved=14 IEnMin=14 EnMin= -633.119264072570     IErMin=14 ErrMin= 2.19D-08
 ErrMax= 2.19D-08  0.00D+00 EMaxC= 1.00D-01 BMatC= 1.87D-13 BMatP= 1.11D-12
 IDIUse=1 WtCom= 1.00D+00 WtEn= 0.00D+00
 Coeff-Com:  0.667D-06-0.137D-05-0.193D-05-0.324D-05-0.159D-04 0.192D-04
 Coeff-Com:  0.165D-03 0.929D-03-0.123D-02-0.762D-02-0.160D-01-0.285D-02
 Coeff-Com:  0.310D+00 0.717D+00
 Coeff:      0.667D-06-0.137D-05-0.193D-05-0.324D-05-0.159D-04 0.192D-04
 Coeff:      0.165D-03 0.929D-03-0.123D-02-0.762D-02-0.160D-01-0.285D-02
 Coeff:      0.310D+00 0.717D+00
 Gap=     0.239 Goal=   None    Shift=    0.000
 RMSDP=3.05D-09 MaxDP=9.93D-08 DE=-1.93D-12 OVMax= 2.87D-07

 Error on total polarization charges =  0.01312
 SCF Done:  E(RCAM-B3LYP) =  -633.119264073     A.U. after   14 cycles
            NFock= 14  Conv=0.30D-08     -V/T= 1.9990
 KE= 6.337246973993D+02 PE=-3.294813540864D+03 EE= 1.119411866174D+03
 Leave Link  502 at Tue Jan 20 17:35:55 2026, MaxMem=  2147483648 cpu:            1211.5 elap:              38.4
 (Enter /data/home/wyx/g16/l601.exe)
 Copying SCF densities to generalized density rwf, IOpCl= 0 IROHF=0.

 **********************************************************************

            Population analysis using the SCF density.

 **********************************************************************

 Orbital symmetries:
       Occupied  (A) (A) (A) (A) (A) (A) (A) (A) (A) (A) (A) (A)
                 (A) (A) (A) (A) (A) (A) (A) (A) (A) (A) (A) (A)
                 (A) (A) (A) (A) (A) (A) (A) (A) (A) (A) (A) (A)
                 (A) (A) (A) (A) (A) (A) (A) (A) (A) (A) (A) (A)
                 (A) (A) (A) (A)
       Virtual   (A) (A) (A) (A) (A) (A) (A) (A) (A) (A) (A) (A)
                 (A) (A) (A) (A) (A) (A) (A) (A) (A) (A) (A) (A)
                 (A) (A) (A) (A) (A) (A) (A) (A) (A) (A) (A) (A)
                 (A) (A) (A) (A) (A) (A) (A) (A) (A) (A) (A) (A)
                 (A) (A) (A) (A) (A) (A) (A) (A) (A) (A) (A) (A)
                 (A) (A) (A) (A) (A) (A) (A) (A) (A) (A) (A) (A)
                 (A) (A) (A) (A) (A) (A) (A) (A) (A) (A) (A) (A)
                 (A) (A) (A) (A) (A) (A) (A) (A) (A) (A) (A) (A)
                 (A) (A) (A) (A) (A) (A) (A) (A) (A) (A) (A) (A)
                 (A) (A) (A) (A) (A) (A) (A) (A) (A) (A) (A) (A)
                 (A) (A) (A) (A) (A) (A) (A) (A) (A) (A) (A) (A)
                 (A) (A) (A) (A) (A) (A) (A) (A) (A) (A) (A) (A)
                 (A) (A) (A) (A) (A) (A) (A) (A) (A) (A) (A) (A)
                 (A) (A) (A) (A) (A) (A) (A) (A) (A) (A) (A) (A)
                 (A) (A) (A) (A) (A) (A) (A) (A) (A) (A) (A) (A)
                 (A) (A) (A) (A) (A) (A) (A) (A) (A) (A) (A) (A)
                 (A) (A) (A) (A) (A) (A) (A) (A) (A) (A) (A) (A)
                 (A) (A) (A) (A) (A) (A) (A) (A) (A) (A) (A) (A)
                 (A) (A) (A) (A) (A) (A) (A) (A) (A) (A) (A) (A)
                 (A) (A) (A) (A) (A) (A) (A) (A) (A) (A) (A) (A)
                 (A) (A) (A) (A) (A) (A) (A) (A) (A) (A) (A) (A)
                 (A) (A) (A) (A) (A) (A) (A) (A) (A) (A) (A) (A)
                 (A) (A) (A) (A) (A) (A) (A) (A) (A) (A) (A) (A)
                 (A) (A) (A) (A) (A) (A) (A) (A) (A) (A) (A) (A)
                 (A) (A) (A) (A) (A) (A) (A) (A) (A) (A) (A) (A)
                 (A) (A) (A) (A)
 The electronic state is 1-A.
 Alpha  occ. eigenvalues --  -19.17342 -19.17167 -14.42921 -10.33084 -10.32935
 Alpha  occ. eigenvalues --  -10.32145 -10.31432 -10.25003 -10.24498 -10.22248
 Alpha  occ. eigenvalues --  -10.22126 -10.20765 -10.20311 -10.19715  -1.10977
 Alpha  occ. eigenvalues --   -1.10785  -1.08754  -0.91973  -0.91237  -0.86215
 Alpha  occ. eigenvalues --   -0.84888  -0.84512  -0.80596  -0.76764  -0.72725
 Alpha  occ. eigenvalues --   -0.70260  -0.62259  -0.59844  -0.57244  -0.56479
 Alpha  occ. eigenvalues --   -0.55754  -0.54663  -0.54256  -0.53455  -0.52926
 Alpha  occ. eigenvalues --   -0.52088  -0.51476  -0.51116  -0.50285  -0.49881
 Alpha  occ. eigenvalues --   -0.47993  -0.47373  -0.46573  -0.45292  -0.43251
 Alpha  occ. eigenvalues --   -0.43140  -0.42462  -0.41994  -0.32912  -0.31859
 Alpha  occ. eigenvalues --   -0.31130  -0.26150
 Alpha virt. eigenvalues --   -0.02273   0.02942   0.07110   0.09205   0.09573
 Alpha virt. eigenvalues --    0.11331   0.12139   0.13757   0.13913   0.14180
 Alpha virt. eigenvalues --    0.14908   0.16174   0.16523   0.17595   0.17858
 Alpha virt. eigenvalues --    0.18451   0.18948   0.19119   0.19398   0.20517
 Alpha virt. eigenvalues --    0.21117   0.23014   0.23217   0.24422   0.24560
 Alpha virt. eigenvalues --    0.25657   0.25778   0.26035   0.26888   0.27452
 Alpha virt. eigenvalues --    0.27532   0.27951   0.28777   0.29097   0.30204
 Alpha virt. eigenvalues --    0.30831   0.31256   0.32824   0.33660   0.35244
 Alpha virt. eigenvalues --    0.35681   0.36658   0.37526   0.37977   0.39546
 Alpha virt. eigenvalues --    0.40051   0.42021   0.42304   0.42703   0.43401
 Alpha virt. eigenvalues --    0.44936   0.46712   0.46818   0.47288   0.47855
 Alpha virt. eigenvalues --    0.48620   0.49216   0.49799   0.50362   0.50760
 Alpha virt. eigenvalues --    0.51697   0.52614   0.53206   0.53775   0.54665
 Alpha virt. eigenvalues --    0.55768   0.56937   0.57348   0.57616   0.58325
 Alpha virt. eigenvalues --    0.58888   0.59450   0.59830   0.60862   0.61349
 Alpha virt. eigenvalues --    0.62023   0.62097   0.63817   0.65053   0.65206
 Alpha virt. eigenvalues --    0.66059   0.66428   0.67809   0.69190   0.70135
 Alpha virt. eigenvalues --    0.71384   0.72633   0.72797   0.75006   0.76406
 Alpha virt. eigenvalues --    0.77127   0.78042   0.79759   0.80795   0.82216
 Alpha virt. eigenvalues --    0.84010   0.85398   0.87044   0.89986   0.93710
 Alpha virt. eigenvalues --    0.96504   1.00138   1.02047   1.04151   1.18531
 Alpha virt. eigenvalues --    1.21423   1.22088   1.24543   1.28057   1.29656
 Alpha virt. eigenvalues --    1.31565   1.33186   1.33278   1.35294   1.35794
 Alpha virt. eigenvalues --    1.35972   1.36695   1.37097   1.39316   1.39683
 Alpha virt. eigenvalues --    1.40333   1.41220   1.42012   1.42287   1.42827
 Alpha virt. eigenvalues --    1.44179   1.44403   1.45238   1.46512   1.47842
 Alpha virt. eigenvalues --    1.48485   1.49568   1.50705   1.51271   1.52269
 Alpha virt. eigenvalues --    1.52546   1.53323   1.56446   1.58362   1.59496
 Alpha virt. eigenvalues --    1.60737   1.61458   1.61689   1.61998   1.64570
 Alpha virt. eigenvalues --    1.65493   1.65820   1.66259   1.68111   1.69719
 Alpha virt. eigenvalues --    1.70389   1.70823   1.71470   1.71680   1.72361
 Alpha virt. eigenvalues --    1.72958   1.73123   1.74171   1.75151   1.75577
 Alpha virt. eigenvalues --    1.76716   1.77636   1.78662   1.79159   1.81058
 Alpha virt. eigenvalues --    1.82156   1.84981   1.86304   1.86954   1.88936
 Alpha virt. eigenvalues --    1.89036   1.90164   1.92918   1.96005   1.96527
 Alpha virt. eigenvalues --    1.96770   1.98448   1.98464   2.01581   2.03465
 Alpha virt. eigenvalues --    2.05366   2.06196   2.08285   2.08626   2.09668
 Alpha virt. eigenvalues --    2.12875   2.15072   2.17568   2.19707   2.22255
 Alpha virt. eigenvalues --    2.23173   2.25851   2.27237   2.29027   2.31028
 Alpha virt. eigenvalues --    2.32494   2.33885   2.35119   2.37168   2.38159
 Alpha virt. eigenvalues --    2.39858   2.41093   2.44292   2.45762   2.46558
 Alpha virt. eigenvalues --    2.47896   2.48478   2.49421   2.50149   2.50850
 Alpha virt. eigenvalues --    2.53344   2.54879   2.55800   2.57941   2.59347
 Alpha virt. eigenvalues --    2.61654   2.62176   2.63277   2.63869   2.65767
 Alpha virt. eigenvalues --    2.66524   2.68665   2.71878   2.72410   2.73402
 Alpha virt. eigenvalues --    2.74857   2.76042   2.77093   2.78225   2.78575
 Alpha virt. eigenvalues --    2.79454   2.80144   2.80626   2.81871   2.82838
 Alpha virt. eigenvalues --    2.83342   2.84201   2.84808   2.85404   2.87684
 Alpha virt. eigenvalues --    2.88455   2.88908   2.90539   2.91241   2.91411
 Alpha virt. eigenvalues --    2.92875   2.94368   2.94970   2.96909   3.00112
 Alpha virt. eigenvalues --    3.01673   3.03079   3.07611   3.10626   3.11624
 Alpha virt. eigenvalues --    3.17777   3.20376   3.24318   3.25786   3.27238
 Alpha virt. eigenvalues --    3.27455   3.29989   3.32093   3.34429   3.35348
 Alpha virt. eigenvalues --    3.37427   3.40463   3.41391   3.44807   3.46305
 Alpha virt. eigenvalues --    3.46917   3.51653   3.52992   3.56894   3.58773
 Alpha virt. eigenvalues --    3.62676   3.66047   3.66168   3.66449   3.67336
 Alpha virt. eigenvalues --    3.69100   3.69972   3.73968   3.76399   3.80347
 Alpha virt. eigenvalues --    3.83361   3.94346   4.35783   4.36013   4.38876
 Alpha virt. eigenvalues --   21.68179  21.79078  22.10278  22.16521  22.22214
 Alpha virt. eigenvalues --   22.29124  22.45738  22.50237  22.51351  22.52770
 Alpha virt. eigenvalues --   22.54701  32.04709  43.64857  43.66770
          Condensed to atoms (all electrons):
               1          2          3          4          5          6
     1  O    7.950235   0.000000  -0.000174   0.000024   0.019948   0.018712
     2  O    0.000000   7.971590   0.000108  -0.000026  -0.198402   0.001346
     3  N   -0.000174   0.000108   6.320698   0.411896  -0.119617   0.336933
     4  H    0.000024  -0.000026   0.411896   0.397623   0.014300  -0.048178
     5  C    0.019948  -0.198402  -0.119617   0.014300   7.166240  -0.070566
     6  C    0.018712   0.001346   0.336933  -0.048178  -0.070566   5.534773
     7  C   -0.000090  -0.030647   0.372333  -0.046095   0.440364  -0.113571
     8  C   -0.000889   0.708659   0.000759  -0.000986  -0.301402   0.028431
     9  C   -0.018108   0.021337   0.032375  -0.002284  -0.686127  -0.079958
    10  H    0.013473  -0.000120  -0.001066   0.000030  -0.091462   0.010579
    11  H    0.009510  -0.000039  -0.000008   0.000072  -0.065617   0.011155
    12  C   -0.256446  -0.003225  -0.094292   0.011990   0.214694   0.013156
    13  C    0.735326  -0.000004  -0.000087   0.000682   0.078033   0.083048
    14  C   -0.000009  -0.020453  -0.027865  -0.008138  -0.088867   0.006808
    15  H   -0.000000   0.006291   0.002640  -0.001804   0.018214   0.006298
    16  H   -0.000000   0.007935   0.000418   0.001323  -0.007300  -0.000785
    17  H   -0.000000   0.003423  -0.002363   0.001100  -0.011404  -0.001233
    18  C    0.000662  -0.109930  -0.000434  -0.000005  -0.277982  -0.000820
    19  H   -0.000001   0.013771   0.000012  -0.000001   0.034065  -0.000037
    20  H   -0.000045   0.003204   0.000056   0.000003   0.034196  -0.000383
    21  H   -0.000095   0.002438   0.000027   0.000000   0.011631   0.000033
    22  C   -0.121571   0.000000   0.000001   0.000029   0.001556   0.014418
    23  H    0.003866   0.000000   0.000106  -0.000035  -0.000400  -0.007711
    24  H    0.003044   0.000000   0.000089  -0.000022  -0.000256  -0.002086
    25  H    0.015704  -0.000000   0.000015  -0.000005  -0.000114  -0.004275
    26  C    0.000435   0.000010  -0.018046  -0.005687   0.000936   0.169712
    27  H   -0.000110  -0.000000  -0.002145   0.000798   0.000607  -0.041021
    28  H   -0.000070  -0.000000  -0.002375   0.000707   0.000232  -0.042275
    29  H    0.000021   0.000000   0.002405   0.000679  -0.000025  -0.035793
               7          8          9         10         11         12
     1  O   -0.000090  -0.000889  -0.018108   0.013473   0.009510  -0.256446
     2  O   -0.030647   0.708659   0.021337  -0.000120  -0.000039  -0.003225
     3  N    0.372333   0.000759   0.032375  -0.001066  -0.000008  -0.094292
     4  H   -0.046095  -0.000986  -0.002284   0.000030   0.000072   0.011990
     5  C    0.440364  -0.301402  -0.686127  -0.091462  -0.065617   0.214694
     6  C   -0.113571   0.028431  -0.079958   0.010579   0.011155   0.013156
     7  C    5.394488  -0.228430  -0.115156   0.008100   0.003456  -0.021163
     8  C   -0.228430   5.429507   0.161076  -0.000101  -0.002629  -0.037211
     9  C   -0.115156   0.161076   6.235930   0.509378   0.466818  -0.050701
    10  H    0.008100  -0.000101   0.509378   0.480995  -0.039011  -0.067352
    11  H    0.003456  -0.002629   0.466818  -0.039011   0.483375  -0.042853
    12  C   -0.021163  -0.037211  -0.050701  -0.067352  -0.042853   7.253978
    13  C    0.016407  -0.008585  -0.223928   0.002958   0.003454  -0.443913
    14  C    0.260182  -0.043011   0.006132   0.000225  -0.000254   0.004113
    15  H   -0.068263   0.008904   0.000062   0.000010   0.000040  -0.001439
    16  H   -0.033162  -0.006079   0.001459  -0.000062   0.000079  -0.000333
    17  H   -0.023869  -0.000021   0.000114   0.000074  -0.000044   0.000138
    18  C   -0.003932   0.319151  -0.030715  -0.000955  -0.005717  -0.001028
    19  H    0.000130  -0.052558  -0.002134   0.000127   0.000007   0.000141
    20  H    0.003841  -0.060954  -0.007175  -0.001572   0.001275   0.002429
    21  H    0.001738  -0.035669  -0.002048   0.000295   0.000122  -0.001195
    22  C    0.000624  -0.000052   0.009249   0.002219   0.001182  -0.346902
    23  H   -0.000031   0.000009  -0.000331  -0.000228   0.000005   0.037622
    24  H    0.000006   0.000003   0.000043  -0.000010  -0.000164   0.021240
    25  H    0.000023  -0.000000   0.000811  -0.000167  -0.000104   0.034405
    26  C    0.003969   0.000677   0.015580  -0.000213  -0.000239  -0.096120
    27  H   -0.001126  -0.000011  -0.000232   0.000021   0.000017  -0.009832
    28  H   -0.000716  -0.000013  -0.000574   0.000022   0.000016  -0.011405
    29  H    0.002506   0.000030  -0.001001   0.000015   0.000007   0.020762
              13         14         15         16         17         18
     1  O    0.735326  -0.000009  -0.000000  -0.000000  -0.000000   0.000662
     2  O   -0.000004  -0.020453   0.006291   0.007935   0.003423  -0.109930
     3  N   -0.000087  -0.027865   0.002640   0.000418  -0.002363  -0.000434
     4  H    0.000682  -0.008138  -0.001804   0.001323   0.001100  -0.000005
     5  C    0.078033  -0.088867   0.018214  -0.007300  -0.011404  -0.277982
     6  C    0.083048   0.006808   0.006298  -0.000785  -0.001233  -0.000820
     7  C    0.016407   0.260182  -0.068263  -0.033162  -0.023869  -0.003932
     8  C   -0.008585  -0.043011   0.008904  -0.006079  -0.000021   0.319151
     9  C   -0.223928   0.006132   0.000062   0.001459   0.000114  -0.030715
    10  H    0.002958   0.000225   0.000010  -0.000062   0.000074  -0.000955
    11  H    0.003454  -0.000254   0.000040   0.000079  -0.000044  -0.005717
    12  C   -0.443913   0.004113  -0.001439  -0.000333   0.000138  -0.001028
    13  C    5.526654  -0.000037  -0.000042  -0.000009  -0.000013   0.001523
    14  C   -0.000037   5.075170   0.383086   0.440977   0.436191  -0.000755
    15  H   -0.000042   0.383086   0.571022  -0.033143  -0.029674   0.000456
    16  H   -0.000009   0.440977  -0.033143   0.482154  -0.028008   0.000229
    17  H   -0.000013   0.436191  -0.029674  -0.028008   0.478172   0.000143
    18  C    0.001523  -0.000755   0.000456   0.000229   0.000143   5.354532
    19  H   -0.000000   0.000130  -0.000015  -0.000016  -0.000034   0.390216
    20  H    0.000087   0.000192  -0.000025  -0.000124   0.000017   0.402507
    21  H   -0.000117  -0.000095  -0.000018   0.000042  -0.000044   0.404918
    22  C    0.311747   0.000010   0.000001  -0.000000  -0.000000   0.000041
    23  H   -0.071017   0.000000   0.000000   0.000000  -0.000000  -0.000003
    24  H   -0.051577   0.000001  -0.000000   0.000000   0.000000  -0.000000
    25  H   -0.044199   0.000000   0.000000  -0.000000   0.000000  -0.000000
    26  C   -0.047269  -0.000923   0.000120   0.000045  -0.000024  -0.000010
    27  H    0.001967  -0.000081   0.000007   0.000002  -0.000003   0.000000
    28  H    0.003865   0.000052  -0.000026  -0.000003   0.000004   0.000000
    29  H    0.000350   0.000233   0.000237  -0.000011  -0.000014   0.000000
              19         20         21         22         23         24
     1  O   -0.000001  -0.000045  -0.000095  -0.121571   0.003866   0.003044
     2  O    0.013771   0.003204   0.002438   0.000000   0.000000   0.000000
     3  N    0.000012   0.000056   0.000027   0.000001   0.000106   0.000089
     4  H   -0.000001   0.000003   0.000000   0.000029  -0.000035  -0.000022
     5  C    0.034065   0.034196   0.011631   0.001556  -0.000400  -0.000256
     6  C   -0.000037  -0.000383   0.000033   0.014418  -0.007711  -0.002086
     7  C    0.000130   0.003841   0.001738   0.000624  -0.000031   0.000006
     8  C   -0.052558  -0.060954  -0.035669  -0.000052   0.000009   0.000003
     9  C   -0.002134  -0.007175  -0.002048   0.009249  -0.000331   0.000043
    10  H    0.000127  -0.001572   0.000295   0.002219  -0.000228  -0.000010
    11  H    0.000007   0.001275   0.000122   0.001182   0.000005  -0.000164
    12  C    0.000141   0.002429  -0.001195  -0.346902   0.037622   0.021240
    13  C   -0.000000   0.000087  -0.000117   0.311747  -0.071017  -0.051577
    14  C    0.000130   0.000192  -0.000095   0.000010   0.000000   0.000001
    15  H   -0.000015  -0.000025  -0.000018   0.000001   0.000000  -0.000000
    16  H   -0.000016  -0.000124   0.000042  -0.000000   0.000000   0.000000
    17  H   -0.000034   0.000017  -0.000044  -0.000000  -0.000000   0.000000
    18  C    0.390216   0.402507   0.404918   0.000041  -0.000003  -0.000000
    19  H    0.478955  -0.019927  -0.011432  -0.000000  -0.000000   0.000000
    20  H   -0.019927   0.520124  -0.035764   0.000000   0.000000  -0.000000
    21  H   -0.011432  -0.035764   0.495716  -0.000003   0.000000   0.000000
    22  C   -0.000000   0.000000  -0.000003   5.467795   0.408253   0.408982
    23  H   -0.000000   0.000000   0.000000   0.408253   0.522697  -0.044080
    24  H    0.000000  -0.000000   0.000000   0.408982  -0.044080   0.504140
    25  H    0.000000   0.000000  -0.000000   0.382741  -0.014132  -0.008981
    26  C   -0.000000  -0.000008   0.000001  -0.052659   0.005842  -0.002571
    27  H    0.000000   0.000000  -0.000000  -0.001095  -0.001903  -0.001078
    28  H   -0.000000   0.000000  -0.000000  -0.005297  -0.002511   0.000282
    29  H   -0.000000  -0.000000  -0.000000   0.001584   0.000201   0.000083
              25         26         27         28         29
     1  O    0.015704   0.000435  -0.000110  -0.000070   0.000021
     2  O   -0.000000   0.000010  -0.000000  -0.000000   0.000000
     3  N    0.000015  -0.018046  -0.002145  -0.002375   0.002405
     4  H   -0.000005  -0.005687   0.000798   0.000707   0.000679
     5  C   -0.000114   0.000936   0.000607   0.000232  -0.000025
     6  C   -0.004275   0.169712  -0.041021  -0.042275  -0.035793
     7  C    0.000023   0.003969  -0.001126  -0.000716   0.002506
     8  C   -0.000000   0.000677  -0.000011  -0.000013   0.000030
     9  C    0.000811   0.015580  -0.000232  -0.000574  -0.001001
    10  H   -0.000167  -0.000213   0.000021   0.000022   0.000015
    11  H   -0.000104  -0.000239   0.000017   0.000016   0.000007
    12  C    0.034405  -0.096120  -0.009832  -0.011405   0.020762
    13  C   -0.044199  -0.047269   0.001967   0.003865   0.000350
    14  C    0.000000  -0.000923  -0.000081   0.000052   0.000233
    15  H    0.000000   0.000120   0.000007  -0.000026   0.000237
    16  H   -0.000000   0.000045   0.000002  -0.000003  -0.000011
    17  H    0.000000  -0.000024  -0.000003   0.000004  -0.000014
    18  C   -0.000000  -0.000010   0.000000   0.000000   0.000000
    19  H    0.000000  -0.000000   0.000000  -0.000000  -0.000000
    20  H    0.000000  -0.000008   0.000000   0.000000  -0.000000
    21  H   -0.000000   0.000001  -0.000000  -0.000000  -0.000000
    22  C    0.382741  -0.052659  -0.001095  -0.005297   0.001584
    23  H   -0.014132   0.005842  -0.001903  -0.002511   0.000201
    24  H   -0.008981  -0.002571  -0.001078   0.000282   0.000083
    25  H    0.460859   0.002208   0.000120  -0.000015  -0.000022
    26  C    0.002208   5.246976   0.448250   0.453053   0.390047
    27  H    0.000120   0.448250   0.477618  -0.043778  -0.018987
    28  H   -0.000015   0.453053  -0.043778   0.470563  -0.017222
    29  H   -0.000022   0.390047  -0.018987  -0.017222   0.489854
 Mulliken charges:
               1
     1  O   -0.373353
     2  O   -0.377268
     3  N   -0.212400
     4  H    0.272010
     5  C   -0.115472
     6  C    0.213292
     7  C    0.178085
     8  C    0.121393
     9  C   -0.239891
    10  H    0.173797
    11  H    0.176091
    12  C   -0.129259
    13  C    0.124693
    14  C   -0.423014
    15  H    0.137060
    16  H    0.174375
    17  H    0.177373
    18  C   -0.442093
    19  H    0.168602
    20  H    0.158046
    21  H    0.169518
    22  C   -0.482854
    23  H    0.163779
    24  H    0.172912
    25  H    0.175129
    26  C   -0.514091
    27  H    0.191996
    28  H    0.197487
    29  H    0.164060
 Sum of Mulliken charges =  -0.00000
 Mulliken charges with hydrogens summed into heavy atoms:
               1
     1  O   -0.373353
     2  O   -0.377268
     3  N    0.059610
     5  C   -0.115472
     6  C    0.213292
     7  C    0.178085
     8  C    0.121393
     9  C    0.109997
    12  C   -0.129259
    13  C    0.124693
    14  C    0.065793
    18  C    0.054073
    22  C    0.028965
    26  C    0.039451
 Electronic spatial extent (au):  <R**2>=           3189.3442
 Charge=             -0.0000 electrons
 Dipole moment (field-independent basis, Debye):
    X=              4.1944    Y=              6.9805    Z=             -0.2529  Tot=              8.1477
 Quadrupole moment (field-independent basis, Debye-Ang):
   XX=            -96.6629   YY=            -78.4747   ZZ=            -82.9553
   XY=             12.9192   XZ=              0.5176   YZ=              0.1659
 Traceless Quadrupole moment (field-independent basis, Debye-Ang):
   XX=            -10.6320   YY=              7.5563   ZZ=              3.0756
   XY=             12.9192   XZ=              0.5176   YZ=              0.1659
 Octapole moment (field-independent basis, Debye-Ang**2):
  XXX=            121.8549  YYY=             61.2802  ZZZ=              0.5161  XYY=            -36.2467
  XXY=             28.2839  XXZ=             -2.7457  XZZ=              0.4179  YZZ=             -1.8399
  YYZ=             -0.7919  XYZ=              0.2838
 Hexadecapole moment (field-independent basis, Debye-Ang**3):
 XXXX=          -3051.6653 YYYY=          -1242.3693 ZZZZ=           -110.8771 XXXY=             36.9779
 XXXZ=             11.1516 YYYX=             93.5830 YYYZ=             -1.0941 ZZZX=             -0.7464
 ZZZY=              0.4421 XXYY=           -675.4095 XXZZ=           -469.3289 YYZZ=           -228.4432
 XXYZ=              2.4662 YYXZ=             -2.0294 ZZXY=              1.0771
 N-N= 9.085577132186D+02 E-N=-3.294813545021D+03  KE= 6.337246973993D+02
 No NMR shielding tensors so no spin-rotation constants.
 Leave Link  601 at Tue Jan 20 17:35:55 2026, MaxMem=  2147483648 cpu:               3.8 elap:               0.1
 (Enter /data/home/wyx/g16/l701.exe)
 ... and contract with generalized density number  0.
 Compute integral first derivatives.
 R6Disp: Adding Grimme-D3(BJ) dispersion energy 1st derivatives to the gradient.
 D1PCM: PCM CHGder 1st derivatives, ID1Alg=3 FixD1E=F DoIter=F DoCFld=F I1PDM=0.
 GePol: Maximum number of non-zero 1st derivatives   =     228
 Leave Link  701 at Tue Jan 20 17:35:56 2026, MaxMem=  2147483648 cpu:              21.5 elap:               0.7
 (Enter /data/home/wyx/g16/l702.exe)
 L702 exits ... SP integral derivatives will be done elsewhere.
 Leave Link  702 at Tue Jan 20 17:35:56 2026, MaxMem=  2147483648 cpu:               0.4 elap:               0.0
 (Enter /data/home/wyx/g16/l703.exe)
 Integral derivatives from FoFJK, PRISM(SPDF).
 Compute integral first derivatives, UseDBF=F ICtDFT=           0.
 Calling FoFJK, ICntrl=      2127 FMM=F ISym2X=0 I1Cent= 0 IOpClX= 0 NMat=1 NMatS=1 NMatT=0.
 FoFJK:  IHMeth= 1 ICntrl=    2127 DoSepK=T KAlg= 0 I1Cent=           0 FoldK=F
 IRaf=         1 NMat=       1 IRICut=       1 DoRegI=T DoRafI=F ISym2E= 0 IDoP0=0 IntGTp=1.
 FoFCou: FMM=F IPFlag=           0 FMFlag=      100000 FMFlg1=         800
         NFxFlg=           0 DoJE=F BraDBF=F KetDBF=F FulRan=T
         wScrn=  0.000000 ICntrl=      2527 IOpCl=  0 I1Cent=           0 NGrid=           0
         NMat0=    1 NMatS0=      1 NMatT0=    0 NMatD0=    1 NMtDS0=    0 NMtDT0=    0
 Symmetry not used in FoFCou.
 Leave Link  703 at Tue Jan 20 17:36:03 2026, MaxMem=  2147483648 cpu:             213.1 elap:               6.7
 (Enter /data/home/wyx/g16/l716.exe)
 Dipole        = 1.65021469D+00 2.74634634D+00-9.94997845D-02
 ***** Axes restored to original set *****
 -------------------------------------------------------------------
 Center     Atomic                   Forces (Hartrees/Bohr)
 Number     Number              X              Y              Z
 -------------------------------------------------------------------
      1        8          -0.001630110    0.015125828   -0.001379339
      2        8           0.013973597   -0.000915723    0.001983587
      3        7           0.067666545   -0.204198724    0.019685081
      4        1          -0.065420670    0.202500724   -0.018635405
      5        6          -0.002987495    0.016691395    0.001046813
      6        6           0.005483426   -0.014127201    0.000332993
      7        6           0.002031001   -0.011180936   -0.000116254
      8        6          -0.020514584    0.005193791   -0.002942214
      9        6          -0.043797007    0.119363241   -0.004140490
     10        1           0.010134233   -0.065110147    0.090295176
     11        1           0.036557091   -0.061866970   -0.086313836
     12        6          -0.007198622    0.017806691   -0.001310761
     13        6           0.005671090   -0.025743838    0.002902695
     14        6           0.114207773   -0.043773741    0.014197523
     15        1           0.006105330    0.123174684   -0.018873771
     16        1          -0.053281884   -0.055567598   -0.094580481
     17        1          -0.069737929   -0.024443549    0.098361684
     18        6          -0.041640727    0.112731161   -0.005979068
     19        1          -0.094968895   -0.074667508   -0.018972178
     20        1           0.090030263   -0.018003954   -0.086360517
     21        1           0.052070316   -0.021507366    0.111820902
     22        6          -0.095690802   -0.072478983   -0.014707744
     23        1           0.009005530    0.074635971   -0.099243947
     24        1          -0.017472508    0.072798177    0.100144655
     25        1           0.100332028   -0.067224853    0.012738962
     26        6          -0.065181190   -0.107714865   -0.009282134
     27        1           0.055116018    0.005130067    0.108929399
     28        1           0.086019673    0.006022389   -0.088611280
     29        1          -0.074881492    0.097351839   -0.010990050
 -------------------------------------------------------------------
 Cartesian Forces:  Max     0.204198724 RMS     0.066072243
 Leave Link  716 at Tue Jan 20 17:36:03 2026, MaxMem=  2147483648 cpu:               0.5 elap:               0.0
 (Enter /data/home/wyx/g16/l103.exe)

 GradGradGradGradGradGradGradGradGradGradGradGradGradGradGradGradGradGrad
 Berny optimization.
 FormGI is forming the generalized inverse of G from B-inverse, IUseBI=4.
 Internal  Forces:  Max     0.213618319 RMS     0.042711206
 Search for a local minimum.
 Step number   1 out of a maximum of  150
 All quantities printed in internal units (Hartrees-Bohrs-Radians)
 RMS Force = .42711D-01 SwitMx=.10000D-02 MixMth= 1
 Mixed Optimization -- RFO/linear search
 Second derivative matrix not updated -- first step.
 ITU=  0
     Eigenvalues ---    0.00654   0.00662   0.00666   0.00730   0.00758
     Eigenvalues ---    0.00926   0.00935   0.01281   0.01312   0.01361
     Eigenvalues ---    0.01454   0.01540   0.01686   0.01989   0.02127
     Eigenvalues ---    0.02187   0.04354   0.06653   0.07465   0.07473
     Eigenvalues ---    0.07476   0.07479   0.07485   0.07488   0.07523
     Eigenvalues ---    0.07534   0.10199   0.11268   0.16000   0.16000
     Eigenvalues ---    0.16000   0.16000   0.16000   0.16000   0.16000
     Eigenvalues ---    0.16000   0.16000   0.16000   0.16000   0.16000
     Eigenvalues ---    0.16000   0.23018   0.24026   0.24994   0.24999
     Eigenvalues ---    0.25000   0.25000   0.25000   0.25000   0.25000
     Eigenvalues ---    0.25000   0.25000   0.30123   0.30607   0.31504
     Eigenvalues ---    0.31570   0.31599   0.32313   0.36834   0.37594
     Eigenvalues ---    0.47180   0.47851   0.50496   0.52440   0.53397
     Eigenvalues ---    0.53435   0.55328   0.55340   0.55362   0.55390
     Eigenvalues ---    0.55401   0.55418   0.55493   0.55504   0.55513
     Eigenvalues ---    0.55522   0.55571   0.55586   0.83922   0.86397
     Eigenvalues ---    0.88037
 RFO step:  Lambda=-2.89869482D-01 EMin= 6.53799298D-03
 Linear search not attempted -- first point.
[...]
 7,-0.00000019,0.00000710,0.00000336,-0.00000231,0.00000546,0.00000004,
 -0.00000066,-0.10484823,-0.06770727,0.09333275,0.11038858,-0.00071627,
 -0.00100400,-0.00454690,-0.00005909,-0.00001296,0.00002361,-0.00004037
 ,0.00011577,0.00024559,-0.00000348,0.00000302,0.00001186,0.00000074,-0
 .00000596,-0.00003091,-0.00011562,-0.00055065,0.00001243,-0.00004022,-
 0.00000243,0.00009516,0.00005177,0.00004480,-0.00005987,-0.00002792,-0
 .00004226,-0.00030488,0.00006200,-0.00000460,0.00000362,-0.00011936,-0
 .00004506,0.00002805,0.00009922,0.00022726,-0.00146284,-0.00693670,-0.
 01155876,0.01642900,-0.00000744,-0.00001213,-0.00000975,0.00000176,0.0
 0000323,-0.00000019,-0.00000792,0.00000114,0.00000205,-0.00000440,0.00
 000218,0.00000187,-0.00000752,-0.00000986,0.00000669,-0.00000600,-0.00
 000230,-0.00000028,0.00000522,0.00000773,0.00000432,0.00000343,0.00000
 292,-0.00000524,-0.06784861,-0.11400609,0.10248647,0.07191129,0.123701
 98,0.00053071,-0.00080905,-0.00231940,-0.00008175,-0.00000891,0.000024
 93,-0.00066056,0.00001534,-0.00010666,0.00001440,-0.00004452,0.0000959
 9,-0.00008073,-0.00009391,0.00006940,0.00036538,-0.00011638,0.00014185
 ,0.00016546,0.00023836,-0.00006237,0.00014315,0.00009025,-0.00005131,0
 .00018097,-0.00012994,-0.00017384,0.00000101,-0.00000012,-0.00001944,-
 0.00001589,-0.00003089,-0.00001547,-0.00044944,0.00141453,-0.00126413,
 -0.00509589,-0.00749642,0.01383572,-0.00000325,-0.00000846,-0.00001287
 ,0.00000752,-0.00000106,0.00000200,-0.00000249,-0.00000347,0.00000388,
 -0.00000035,-0.00000335,-0.00000091,-0.00000011,-0.00000638,0.00000227
 ,-0.00000057,-0.00000320,-0.00000104,0.00000294,-0.00000074,-0.0000014
 6,0.00000284,-0.00000320,-0.00000039,0.08974527,0.09783262,-0.18308622
 ,-0.09882406,-0.10967428,0.19790632,-0.00327789,-0.00545631,-0.0000455
 5,-0.00005381,-0.00000496,-0.00001466,-0.00066905,0.00007163,-0.000240
 34,-0.00001431,-0.00004053,-0.00005323,-0.00000457,-0.00006948,0.00009
 213,-0.00008257,-0.00079430,-0.00058625,0.00015471,0.00025252,-0.00000
 916,0.00010064,0.00005809,0.00005438,0.00017528,-0.00021160,0.00019847
 ,-0.00004262,0.00006130,-0.00007258,0.00006712,0.00005500,-0.00001621,
 -0.00134213,0.00139952,0.00089756,0.01589605,-0.01277539,-0.01476039,-
 0.00000343,0.00000322,-0.00000537,0.00000177,-0.00000002,0.00000132,-0
 .00000032,0.00000134,0.00000095,0.00000086,-0.00000349,-0.00000222,0.0
 0000215,-0.00000145,-0.00000104,-0.00000017,-0.00000257,-0.00000037,0.
 00000173,-0.00000225,0.00000063,0.00000240,-0.00000005,-0.00000044,-0.
 09647944,0.07658009,0.07074456,-0.00625487,0.01066037,0.00863463,0.101
 34828,-0.00484101,-0.00474047,-0.00233426,-0.00003137,-0.00000852,0.00
 000186,0.00009812,-0.00001176,-0.00005575,0.00001152,0.00000580,0.0000
 1552,0.00005573,-0.00000901,-0.00001810,-0.00006449,-0.00011740,-0.000
 16326,-0.00004536,-0.00000237,-0.00005824,0.00001538,0.00001482,0.0000
 2772,-0.00017228,-0.00010053,0.00030318,-0.00001635,0.00006233,-0.0000
 9165,0.00007199,0.00005628,0.00001802,-0.00036887,0.00028578,0.0010446
 5,0.01208391,-0.01181063,-0.00887616,-0.00000298,0.00000436,0.00000877
 ,-0.00000287,0.00000163,0.00000041,-0.00000234,0.00000109,-0.00000018,
 -0.00001064,0.00000346,-0.00000103,-0.00000715,-0.00000569,-0.00000595
 ,-0.00000409,-0.00000138,0.00000037,0.00000272,0.00000164,0.00000906,0
 .00000362,0.00000115,-0.00000599,0.07585546,-0.16336487,-0.11934021,-0
 .00677984,0.01229673,0.01141988,-0.08302215,0.17819762,-0.00181155,-0.
 00236481,0.00022588,0.00001938,0.00000918,-0.00001745,-0.00011529,0.00
 037050,-0.00015956,-0.00009694,-0.00003417,0.00000336,0.00004123,0.000
 07903,0.00001633,-0.00043022,-0.00125933,-0.00025334,0.00001902,-0.000
 02990,-0.00000948,-0.00002902,-0.00003445,0.00005145,-0.00007753,-0.00
 008614,0.00014920,0.00003205,0.00008078,-0.00006575,0.00006108,0.00009
 097,0.00002154,-0.00120245,0.00079708,0.00058925,0.00963653,-0.0038052
 0,-0.00662896,0.00000632,0.00001820,0.00000481,-0.00000579,0.00000219,
 -0.00000088,0.00000578,0.00000125,-0.00000167,0.00000213,0.00000053,-0
 .00000141,0.00000114,0.00001058,-0.00000363,-0.00000036,0.00000134,0.0
 0000005,0.00000199,-0.00000120,0.00000256,0.00000238,0.00000270,-0.000
 00179,0.06816489,-0.11639376,-0.16045325,0.00861783,-0.01532767,-0.014
 21346,-0.07753291,0.12669448,0.16839835,0.00340001,0.00187100,0.003316
 51,-0.00021232,-0.00006529,0.00005338,-0.00028750,0.00004850,-0.000095
 70,-0.00001451,0.00000656,-0.00002098,-0.00009508,-0.00051889,-0.00009
 332,0.00053990,-0.00041166,0.00026267,0.00009711,0.00013749,0.00000623
 ,0.00011850,0.00023462,-0.00005331,-0.00079416,0.00070955,-0.00005630,
 0.00002801,-0.00001918,0.00003038,-0.00001457,-0.00006326,-0.00008118,
 -0.00091703,-0.00408322,-0.00096812,-0.02123381,0.01353212,-0.01325203
 ,-0.00001438,-0.00000167,-0.00000140,-0.00000195,0.00000782,-0.0000019
 8,-0.00000877,0.00000235,0.00000147,-0.00000951,0.00000291,-0.00000048
 ,-0.00001206,-0.00002757,-0.00000206,-0.00000851,-0.00000903,0.0000005
 3,0.00000326,0.00000858,0.00000728,0.00000492,0.00000090,-0.00000613,-
 0.17188226,0.10580927,-0.09007283,0.01225794,-0.00910890,0.00721276,-0
 .00778835,0.00519983,-0.00560803,0.18654931,-0.00056615,0.00161132,0.0
 0073528,-0.00004894,-0.00002822,0.00001248,0.00008460,0.00021692,-0.00
 002510,-0.00007031,-0.00001528,-0.00001483,-0.00007459,-0.00020710,-0.
 00008422,-0.00010327,-0.00051274,-0.00020316,-0.00002409,-0.00011376,0
 .00002096,-0.00005608,0.00006203,0.00001061,-0.00082872,0.00045402,0.0
 0006968,0.00003221,0.00003667,0.00002389,0.00004492,0.00004557,-0.0000
 0419,-0.00146702,-0.00281949,-0.00054687,-0.01678057,0.01011531,-0.012
 76780,0.00000299,0.00001305,0.00000727,-0.00000712,0.00000540,-0.00000
 197,0.00000179,0.00000141,-0.00000054,-0.00000353,0.00000343,-0.000000
 93,-0.00000523,-0.00000240,-0.00000321,-0.00000186,-0.00000197,-0.0000
 0010,0.00000098,0.00000382,0.00000249,0.00000104,0.00000144,-0.0000016
 6,0.11002461,-0.13581451,0.07486889,0.01103078,-0.00860587,0.00637707,
 0.01124260,-0.00975232,0.01065655,-0.11332178,0.14584334,0.00187955,0.
 00009080,0.00118080,-0.00016281,-0.00004816,0.00001050,-0.00048682,0.0
 0000943,-0.00015959,-0.00001075,-0.00002446,0.00000698,-0.00005572,-0.
 00041458,0.00001376,0.00068227,-0.00051839,-0.00004021,0.00014756,0.00
 021363,-0.00003546,0.00012418,0.00018053,0.00002328,-0.00051603,0.0003
 8908,0.00014322,0.00000533,-0.00003385,0.00000854,0.00002274,0.0000305
 0,-0.00001860,-0.00101665,-0.00173665,0.00019520,-0.00901249,0.0094287
 6,-0.00730455,-0.00001289,-0.00000357,0.00000609,0.00000005,0.00000567
 ,-0.00000132,-0.00000585,0.00000097,0.00000070,-0.00000662,0.00000135,
 -0.00000075,-0.00000446,-0.00002120,-0.00000367,-0.00000659,-0.0000069
 8,0.00000051,0.00000192,0.00000223,0.00000383,0.00000219,0.00000334,-0
 .00000316,-0.08952603,0.07130850,-0.11194640,-0.01600931,0.01202323,-0
 .01058275,0.01443399,-0.01103994,0.01261142,0.09945907,-0.07973089,0.1
 1543635,-0.00012961,-0.00012037,-0.00026340,-0.00040499,-0.00008032,0.
 00004699,-0.03657531,-0.03697005,-0.00840206,0.00031534,-0.00259041,0.
 00086319,-0.00109346,-0.00144587,0.00034232,-0.12136399,-0.04705308,-0
 .01097253,-0.00119531,0.00387168,-0.00314540,0.00094762,0.00057669,0.0
 0009055,-0.00139196,0.00305951,-0.00130454,0.00056510,0.00071711,0.000
 20861,0.00011130,0.00017777,0.00005117,0.01361989,0.00446928,0.0032931
 4,0.00048240,0.00047577,0.00084839,-0.00040040,-0.00071166,0.00032484,
 0.00010303,0.00004138,0.00002369,-0.00018546,0.00000710,0.00002166,-0.
 00015568,0.00000280,-0.00005564,0.00003791,-0.00007629,-0.00002275,0.0
 0003553,-0.00004491,-0.00001111,-0.00001455,-0.00004492,-0.00004024,-0
 .00001888,-0.00002842,0.00003952,-0.00183509,0.00020389,-0.00046458,-0
 .00059738,0.00083934,-0.00080779,-0.00064542,0.00086057,-0.00002522,0.
 00022856,0.00010839,0.00025724,0.60322750,-0.00017575,-0.00113367,-0.0
 0006955,-0.00009619,-0.00000213,0.00005000,-0.00743618,0.00070479,0.00
 076944,0.00266303,0.00206241,-0.00049593,0.00022010,-0.00034679,-0.000
 27158,-0.06100326,-0.18621971,-0.01393100,0.00251437,-0.00021594,0.001
 59141,0.00002549,0.00004114,-0.00018481,0.00223816,-0.00063683,0.00164
 343,-0.00048808,-0.00057447,-0.00031863,-0.00012271,-0.00019471,-0.000
 10453,-0.01394463,-0.02214850,-0.00499877,-0.00027283,0.00228487,-0.00
 042368,0.00005716,0.00033568,-0.00031838,-0.00005012,-0.00002726,0.000
 00037,0.00006138,0.00000496,0.00000744,0.00011715,-0.00003099,0.000009
 55,-0.00004379,-0.00006218,0.00001397,-0.00002981,0.00000077,0.0000089
 7,-0.00001172,0.00002219,0.00004730,0.00000383,0.00001315,-0.00002987,
 0.00267475,-0.00240875,0.00189223,-0.00022633,0.00000876,0.00071090,0.
 00083692,-0.00035791,-0.00026265,-0.00010816,-0.00084464,-0.00009264,-
 0.03446418,0.51222656,0.00111874,-0.00260683,0.00087347,0.00013567,0.0
 0003019,0.00009956,-0.00405160,-0.00605797,0.00486207,-0.00116956,-0.0
 0074438,-0.00179256,-0.00004925,0.00013461,-0.00073511,-0.00974646,-0.
 00166701,-0.07904460,-0.00116146,0.00140673,0.00395833,-0.00039391,-0.
 00017503,-0.00057440,-0.00192023,0.00017612,0.00819170,-0.00073895,-0.
 00057332,-0.00006798,0.00078354,0.00107092,-0.00009256,0.00760308,-0.0
 0392536,0.00996580,-0.00313059,0.00221830,-0.00690011,-0.00010729,-0.0
 0044331,-0.00005562,-0.00000789,0.00004227,-0.00002697,-0.00005615,0.0
 0008450,0.00002788,-0.00005286,0.00003982,0.00004479,0.00001085,0.0000
 1687,0.00019119,-0.00001341,0.00002184,-0.00003725,0.00004665,0.000033
 18,-0.00003020,-0.00002278,-0.00001063,-0.00005322,-0.00216358,0.00106
 021,-0.00086585,0.00031795,-0.00007396,-0.00082171,-0.00160062,0.00154
 429,0.00052197,0.00016429,0.00087643,0.00001021,-0.00503661,-0.0128221
 9,0.55413778,0.00012424,-0.00028942,0.00003879,-0.00015313,-0.00002863
 ,0.00005709,-0.00054657,-0.00132893,0.00102041,-0.00006938,0.00003389,
 -0.00067382,-0.00004597,-0.00023383,-0.00014871,-0.00140733,-0.0039932
 9,-0.01744368,-0.00030812,0.00026981,0.00089277,0.00016313,0.00014763,
 -0.00017843,-0.00017627,-0.00008946,0.00075751,-0.00011526,-0.00007132
 ,-0.00001285,0.00002038,0.00005253,-0.00000673,0.00039207,0.00024364,0
 .00013886,-0.00031738,0.00041801,-0.00058845,-0.00003860,-0.00012417,-
 0.00003574,0.00000984,0.00001538,-0.00001518,-0.00003098,0.00002160,0.
 00001512,-0.00002919,-0.00000544,0.00000985,-0.00000573,-0.00002830,0.
 00003133,-0.00000748,-0.00000631,-0.00000219,0.00000326,0.00000796,0.0
 0000469,-0.00000153,-0.00000576,-0.00001165,0.00033905,0.00007017,0.00
 061108,0.00007972,-0.00010124,0.00028598,-0.00027966,0.00055197,-0.000
 46735,0.00007181,-0.00022065,-0.00009221,-0.04541902,-0.00217475,-0.00
 347815,0.04590516,0.00084980,-0.00108264,0.00027163,0.00001062,-0.0000
 1015,0.00003987,0.00212475,-0.00036818,0.00070399,-0.00020717,0.000074
 77,-0.00006071,0.00025087,0.00028380,-0.00021441,-0.00161290,-0.010136
 77,-0.02879992,-0.00087289,-0.00055667,0.00042402,-0.00016834,-0.00008
 078,-0.00010280,-0.00016328,-0.00033532,0.00171182,-0.00026823,-0.0002
 7697,-0.00002463,-0.00000667,0.00008999,-0.00005045,0.00050425,-0.0015
 5344,0.00165309,-0.00245489,0.00078397,-0.00198961,0.00000293,-0.00008
 464,0.00004456,-0.00000825,0.00001765,-0.00000464,-0.00002216,0.000011
 99,0.00000660,-0.00005055,0.00002340,0.00001127,-0.00003228,-0.0000122
 8,0.00002706,-0.00001696,0.00000294,-0.00000898,0.00001716,0.00002232,
 0.00001106,0.00000008,0.00001287,-0.00002700,0.00013255,-0.00023859,-0
 .00021288,-0.00003924,0.00004829,0.00000061,0.00067490,-0.00019811,0.0
 0047238,-0.00004230,0.00019803,0.00019055,-0.00191108,-0.06580686,-0.0
 7412411,0.00364632,0.07256971,0.00009205,0.00037511,-0.00004145,-0.000
 02553,-0.00000406,0.00000408,0.00034700,-0.00020760,0.00029549,0.00009
 525,-0.00008020,-0.00040275,0.00003396,0.00005417,0.00001026,-0.001356
 43,-0.00326474,0.00048385,-0.00016361,-0.00022455,-0.00010068,0.000010
 42,-0.00000200,-0.00002617,0.00005776,-0.00022165,-0.00003669,-0.00008
 459,-0.00001621,-0.00002278,-0.00000188,-0.00000122,-0.00001974,-0.001
 11555,0.00121491,0.00016807,-0.00013273,-0.00027661,0.00004783,0.00001
 296,-0.00000826,0.00004766,0.00000332,0.00000281,-0.00000912,-0.000003
 47,0.00000119,0.00000091,-0.00002189,0.00000010,0.00000491,-0.00000619
 ,-0.00000428,0.00000232,-0.00000332,-0.00000144,0.00000236,0.00000072,
 0.00000384,0.00000303,0.00000335,0.00000126,-0.00000223,-0.00011077,0.
 00054177,-0.00024673,0.00002298,-0.00016625,-0.00010124,-0.00015352,0.
 00017476,0.00021381,-0.00005976,0.00016060,0.00019245,-0.00142621,-0.0
 7179474,-0.29378143,0.00416985,0.07987945,0.31721175,0.00005577,0.0001
 0175,-0.00000047,-0.00022160,-0.00004157,0.00002119,-0.00178716,-0.003
 32267,0.00063236,0.00052994,-0.00025983,0.00023681,-0.00016719,-0.0003
 9278,0.00007360,-0.01345650,0.00242890,0.00308422,0.00006161,0.0007228
 4,-0.00046005,0.00035933,0.00021905,0.00001587,-0.00003338,-0.00000918
 ,-0.00042520,0.00004671,0.00002104,0.00001334,-0.00004473,-0.00005950,
 -0.00000224,0.00072489,0.00080589,-0.00069093,-0.00010019,-0.00034244,
 0.00063239,-0.00007016,-0.00013080,-0.00000887,0.00003139,0.00000765,0
 .00000613,-0.00005420,0.00000033,0.00001119,-0.00002449,-0.00000384,-0
 .00000430,-0.00000969,-0.00003828,-0.00001003,-0.00000268,-0.00001594,
 0.00000120,0.00000088,-0.00000521,0.00000001,0.00000287,-0.00000052,0.
 00000119,-0.00124308,0.00221060,-0.00226623,-0.00073675,0.00149629,-0.
 00082130,-0.00055470,0.00043629,0.00023550,-0.00007854,0.00051789,-0.0
 0006166,-0.30231571,0.01998108,0.09013413,0.00226690,0.00020024,-0.000
 63017,0.32803414,0.00048892,-0.00016544,0.00018844,-0.00014648,-0.0000
 3658,0.00003646,-0.00229891,-0.00463089,-0.00037290,-0.00049255,-0.000
 38141,0.00003574,-0.00011986,-0.00020215,-0.00002717,-0.02844915,0.006
 07263,0.01003220,-0.00081188,0.00052495,-0.00071844,0.00022354,0.00019
 389,-0.00004339,0.00002787,0.00036797,-0.00062914,0.00007427,0.0000875
 1,0.00005631,-0.00014158,-0.00011238,-0.00001372,0.00172822,0.00007762
 ,-0.00013180,-0.00189391,-0.00103037,-0.00013433,-0.00009178,-0.000191
 49,0.00008360,0.00001428,0.00001572,-0.00000804,-0.00005652,0.00000243
 ,0.00000659,-0.00005000,0.00000023,-0.00001036,0.00000423,-0.00003607,
 -0.00000683,-0.00000058,-0.00000950,0.00000218,-0.00000515,-0.00000150
 ,0.00000300,-0.00000355,-0.00000374,0.00000233,0.00071020,-0.00127229,
 0.00150422,0.00168163,-0.00060688,0.00030234,0.00043012,-0.00041783,0.
 00027799,0.00025386,0.00006867,-0.00024265,0.02478056,-0.05127900,-0.0
 0827301,0.00843973,-0.00126526,-0.00172942,-0.02553560,0.05561113,-0.0
 0032004,-0.00023657,-0.00028849,-0.00003236,-0.00000295,-0.00000512,-0
 .00200436,-0.00161913,0.00036937,0.00045542,-0.00009300,-0.00006749,-0
 .00002212,-0.00002922,0.00006528,-0.00622905,-0.00031266,-0.00006533,-
 0.00029228,0.00009248,-0.00009499,0.00006009,-0.00000477,0.00003587,-0
 .00004590,-0.00000619,-0.00015158,0.00002865,0.00000986,-0.00001299,0.
 00002039,-0.00000885,-0.00000666,-0.00043375,0.00081233,0.00010154,0.0
 0123581,0.00032383,0.00091246,-0.00004807,-0.00006821,-0.00000681,0.00
 001624,0.00000439,-0.00000094,-0.00003128,0.00000597,0.00000427,-0.000
 01844,-0.00000129,0.00000247,-0.00001150,0.00000077,-0.00000508,0.0000
 0124,-0.00000593,0.00000030,0.00000255,-0.00000297,-0.00000138,0.00000
 569,0.00000069,0.00000113,0.00009461,-0.00000317,-0.00008193,-0.000724
 25,0.00043465,0.00064082,-0.00003748,0.00065561,-0.00127800,-0.0000489
 1,-0.00048256,0.00003872,0.08986155,-0.00607238,-0.07564361,0.02975588
 ,-0.00246418,-0.00882862,-0.09378410,0.00892063,0.07788786,0.00029993,
 0.00004489,0.00012213,0.00009131,0.00001784,-0.00000221,0.00020704,-0.
 00227833,0.00064623,-0.00089383,-0.00064556,0.00039193,0.00025519,0.00
 010005,-0.00015840,0.00669760,-0.01351584,0.01075065,0.00025291,-0.000
 51306,0.00034048,-0.00017858,-0.00011213,-0.00004502,0.00029421,-0.000
 35461,-0.00057438,-0.00002037,-0.00003411,-0.00001599,-0.00015245,-0.0
 0016845,-0.00001289,-0.00146609,-0.00164075,-0.00090406,-0.00107925,-0
 .00040101,-0.00000424,0.00003106,0.00009676,-0.00000511,-0.00002366,0.
 00000846,-0.00001452,0.00003115,0.00000687,-0.00000840,0.00001902,0.00
 000434,-0.00000039,-0.00001670,-0.00000584,-0.00000240,-0.00000517,0.0
 0000262,0.00000819,-0.00000892,0.00001240,0.00001421,0.00000012,0.0000
 0468,-0.00000158,-0.00093429,0.00059685,-0.00073770,0.00045713,0.00001
 961,-0.00044883,-0.00025767,0.00012468,0.00055542,0.00007400,0.0004871
 1,-0.00002918,-0.10593197,0.08925506,-0.06541355,-0.00042396,-0.000537
 26,0.00044601,-0.01121368,0.02124007,-0.01745422,0.11389592,0.00035515
 ,-0.00039349,0.00002979,-0.00000825,-0.00001173,0.00000031,0.00330081,
 0.00211317,-0.00054746,-0.00197304,0.00058110,0.00043029,0.00050988,0.
 00042372,-0.00012112,0.01390450,-0.02514518,0.01575336,-0.00050733,-0.
 00034305,-0.00020908,-0.00015101,-0.00001111,0.00004854,0.00087839,-0.
 00062070,-0.00043466,-0.00014097,-0.00021048,-0.00008468,-0.00023885,-
 0.00029542,-0.00002728,-0.00437357,-0.00138271,-0.00108801,-0.00087552
 ,0.00066253,0.00005555,0.00002207,0.00003938,0.00004334,-0.00003554,0.
 00001961,-0.00000502,0.00001084,-0.00000011,-0.00000392,-0.00000838,0.
 00001928,-0.00000293,-0.00002120,-0.00000932,-0.00002406,-0.00001969,0
 .00000686,0.00000635,0.00000122,0.00001569,0.00002860,0.00000687,0.000
 01822,-0.00001614,0.00003894,0.00014808,-0.00009212,-0.00001330,0.0000
 0599,0.00003239,0.00005694,-0.00003389,0.00003357,-0.00004444,0.000037
 88,0.00003538,0.08534968,-0.18541494,0.10274083,-0.00521715,0.00786695
 ,-0.00440672,0.00100829,-0.00137996,0.00015280,-0.09181534,0.20329362,
 -0.00016394,0.00054456,-0.00000656,-0.00003150,-0.00001172,0.00000021,
 -0.00056485,-0.00101898,0.00034549,0.00119349,0.00042262,0.00096126,-0
 .00011003,-0.00024153,0.00003411,0.00196996,-0.00565425,0.00145652,0.0
 0038291,0.00003019,0.00013261,0.00010335,0.00004769,-0.00001343,-0.000
 13987,-0.00026123,0.00032191,-0.00003936,-0.00007426,-0.00002712,0.000
 10667,0.00012863,0.00001626,-0.00114136,0.00006468,-0.00038696,0.00064
 574,-0.00052166,0.00010563,-0.00001500,0.00001391,-0.00005836,0.000017
 22,-0.00000954,0.00001700,-0.00000413,-0.00000906,0.00000487,0.0000153
 4,0.00000006,0.00000179,-0.00000588,-0.00001522,0.00000074,0.00000224,
 -0.00000662,0.00000102,-0.00000586,-0.00000693,-0.00000144,0.00000141,
 -0.00000393,0.00000365,0.00017841,-0.00003372,-0.00038414,-0.00007210,
 -0.00014557,0.00011148,0.00007373,0.00007214,0.00027866,-0.00009205,0.
 00004582,0.00021389,-0.06429478,0.10544630,-0.12236158,-0.01463405,0.0
 2263636,-0.01506916,0.00406644,-0.00911083,0.00647892,0.07255783,-0.11
 232791,0.12782270\\0.00000020,-0.00000048,0.00000372,0.00000129,-0.000
 00298,-0.00000142,0.00000335,0.00000235,-0.00000563,0.00000050,-0.0000
 0301,-0.00000265,0.00000270,0.00000257,-0.00000072,-0.00000152,0.00000
 128,0.00000177,-0.00000242,-0.00000176,0.00000025,-0.00000142,-0.00000
 310,-0.00000145,0.00000107,-0.00000192,0.00000202,0.00000047,0.0000013
 6,0.00000221,0.00000167,-0.00000124,0.00000128,0.00000199,0.00000044,0
 .00000234,-0.00000270,0.00000314,0.00000236,-0.00000028,-0.00000472,-0
 .00000855,-0.00000083,-0.00000018,-0.00000382,0.00000196,0.00000015,-0
 .00000206,-0.00000157,0.00000077,-0.00000205,0.00000097,0.00000043,0.0
 0000089,0.00000067,-0.00000197,0.00000087,0.00000077,-0.00000067,0.000
 00268,0.00000138,-0.00000062,0.00000266,0.00000097,-0.00000044,0.00000
 143,-0.00000005,0.00000193,0.00000282,-0.00000174,0.00000152,0.0000026
 9,-0.00000047,0.00000212,0.00000397,-0.00000209,0.00000086,0.00000113,
 -0.00000217,0.00000094,-0.00000379,-0.00000143,0.00000185,-0.00000035,
 -0.00000126,0.00000136,-0.00000259\\\@


 THE REAL VOYAGE OF DISCOVERY CONSISTS NOT IN SEEKING NEW LANDSCAPES 
 BUT IN HAVING NEW EYES.
                                                    -- MARCEL PROUST
 Job cpu time:       0 days  2 hours 27 minutes 19.4 seconds.
 Elapsed time:       0 days  0 hours  4 minutes 38.2 seconds.
 File lengths (MBytes):  RWF=    427 Int=      0 D2E=      0 Chk=     21 Scr=      1
 Normal termination of Gaussian 16 at Tue Jan 20 18:22:43 2026.
