LAMMPS (29 Aug 2024)
OMP_NUM_THREADS environment is not set. Defaulting to 1 thread. (src/comm.cpp:98)
  using 1 OpenMP thread(s) per MPI task
# ====================================================
# Production run for DDL (GAFF/AM1-BCC) + TIP3P water
# NVT then optional NPT
# ====================================================

units real
boundary p p p
atom_style full

read_restart after_NPT_100ps.restart   # 使用平衡后的 NPT 重启文件
Reading restart file ...
  restart file = 29 Aug 2024, LAMMPS = 29 Aug 2024
  restoring atom style full from restart
  triclinic box = (0.10108159 -0.85969272 -1.0793147) to (52.500918 75.356693 35.017056) with tilt (0.065860237 -9.2449809 0.11977489)
  1 by 1 by 1 MPI processor grid
  restoring pair style lj/cut/coul/long from restart
  restoring bond style harmonic from restart
  restoring angle style harmonic from restart
  restoring dihedral style fourier from restart
  restoring improper style cvff from restart
  16000 atoms
  15500 bonds
  26000 angles
  30000 dihedrals
  1000 impropers
Finding 1-2 1-3 1-4 neighbors ...
  special bond factors lj:    0        0        0.5     
  special bond factors coul:  0        0        0.8333  
     4 = max # of 1-2 neighbors
     7 = max # of 1-3 neighbors
    17 = max # of 1-4 neighbors
    19 = max # of special neighbors
  special bonds CPU = 0.008 seconds
  read_restart CPU = 0.052 seconds

# --- 分组 ---
group water type 9 10
1500 atoms in group water
group ddl subtract all water
14500 atoms in group ddl

# --- 邻居列表 ---
neighbor 2.0 bin
neigh_modify delay 0 every 1 check yes

# --- SHAKE 水 ---
fix shake_water water shake 1.0e-4 20 0 b 30 a 52
Finding SHAKE clusters ...
       0 = # of size 2 clusters
       0 = # of size 3 clusters
       0 = # of size 4 clusters
     500 = # of frozen angles
  find clusters CPU = 0.003 seconds

# --- KSpace ---
kspace_style pppm 1.0e-4

# --- 输出设置 ---
thermo 1000
thermo_style custom step temp press pe ke etotal density vol lx ly lz xy xz yz

# --- Trajectory dump for HBCalculator ---
dump traj all custom 5000 traj_prod.lammpstrj id mol type q x y z
dump_modify traj sort id

timestep 1.0  # fs

# ====================================================
# Production NVT run
# ====================================================
fix nvt_prod all nvt temp 300.0 300.0 100.0
run 500000  # 0.5 ns
PPPM initialization ...
  using 12-bit tables for long-range coulomb (src/kspace.cpp:342)
  G vector (1/distance) = 0.251564
  grid = 24 30 20
  stencil order = 5
  estimated absolute RMS force accuracy = 0.018449834
  estimated relative force accuracy = 5.5561127e-05
  using double precision FFTW3
  3d grid and FFT values/proc = 27405 14400
Generated 45 of 45 mixed pair_coeff terms from arithmetic mixing rule
Neighbor list info ...
  update: every = 1 steps, delay = 0 steps, check = yes
  max neighbors/atom: 2000, page size: 100000
  master list distance cutoff = 12
  ghost atom cutoff = 12
  binsize = 6, bins = 11 13 7
  1 neighbor lists, perpetual/occasional/extra = 1 0 0
  (1) pair lj/cut/coul/long, perpetual
      attributes: half, newton on
      pair build: half/bin/newton/tri
      stencil: half/bin/3d/tri
      bin: standard
WARNING: Inconsistent image flags (src/domain.cpp:1051)
Per MPI rank memory allocation (min/avg/max) = 81.01 | 81.01 | 81.01 Mbytes
   Step          Temp          Press          PotEng         KinEng         TotEng        Density         Volume           Lx             Ly             Lz             Xy             Xz             Yz      
    100000   298.48331     -353.45805     -49199.511      13789.802     -35409.709      1.2167043      144159.02      52.399837      76.216385      36.096371      0.065860237   -9.2449809      0.11977489   
    101000   299.72299      99.875737     -49017.447      13847.075     -35170.372      1.2167043      144159.02      52.399837      76.216385      36.096371      0.065860237   -9.2449809      0.11977489   
    102000   297.9848       355.93237     -49095.693      13766.771     -35328.922      1.2167043      144159.02      52.399837      76.216385      36.096371      0.065860237   -9.2449809      0.11977489   
    103000   293.58726      730.34986     -48999.752      13563.606     -35436.146      1.2167043      144159.02      52.399837      76.216385      36.096371      0.065860237   -9.2449809      0.11977489   
    104000   300.37238      156.74751     -49045.14       13877.076     -35168.064      1.2167043      144159.02      52.399837      76.216385      36.096371      0.065860237   -9.2449809      0.11977489   
    105000   302.30413      660.52773     -49261.149      13966.322     -35294.826      1.2167043      144159.02      52.399837      76.216385      36.096371      0.065860237   -9.2449809      0.11977489   
    106000   302.20692      1022.8647     -49125.729      13961.831     -35163.898      1.2167043      144159.02      52.399837      76.216385      36.096371      0.065860237   -9.2449809      0.11977489   
    107000   301.11471      546.81617     -49198.479      13911.372     -35287.107      1.2167043      144159.02      52.399837      76.216385      36.096371      0.065860237   -9.2449809      0.11977489   
    108000   301.91329     -304.56582     -49103.217      13948.266     -35154.952      1.2167043      144159.02      52.399837      76.216385      36.096371      0.065860237   -9.2449809      0.11977489   
    109000   303.08246     -379.64706     -49251.045      14002.281     -35248.764      1.2167043      144159.02      52.399837      76.216385      36.096371      0.065860237   -9.2449809      0.11977489   
    110000   301.93806     -391.53186     -49086.414      13949.41      -35137.004      1.2167043      144159.02      52.399837      76.216385      36.096371      0.065860237   -9.2449809      0.11977489   
    111000   299.93261     -62.652211     -49103.105      13856.759     -35246.346      1.2167043      144159.02      52.399837      76.216385      36.096371      0.065860237   -9.2449809      0.11977489   
    112000   299.46584      265.97607     -49096.257      13835.195     -35261.062      1.2167043      144159.02      52.399837      76.216385      36.096371      0.065860237   -9.2449809      0.11977489   
    113000   298.09762     -54.508804     -49178.112      13771.983     -35406.129      1.2167043      144159.02      52.399837      76.216385      36.096371      0.065860237   -9.2449809      0.11977489   
    114000   300.84634     -35.207332     -49035.827      13898.973     -35136.854      1.2167043      144159.02      52.399837      76.216385      36.096371      0.065860237   -9.2449809      0.11977489   
    115000   299.68203      686.98599     -49337.71       13845.182     -35492.527      1.2167043      144159.02      52.399837      76.216385      36.096371      0.065860237   -9.2449809      0.11977489   
    116000   301.73755     -228.2209      -49131.886      13940.146     -35191.739      1.2167043      144159.02      52.399837      76.216385      36.096371      0.065860237   -9.2449809      0.11977489   
    117000   300.77985     -1608.4442     -49113.608      13895.901     -35217.706      1.2167043      144159.02      52.399837      76.216385      36.096371      0.065860237   -9.2449809      0.11977489   
    118000   293.59542      514.32594     -49214.773      13563.983     -35650.79       1.2167043      144159.02      52.399837      76.216385      36.096371      0.065860237   -9.2449809      0.11977489   
    119000   299.72745      198.31428     -48990.812      13847.281     -35143.531      1.2167043      144159.02      52.399837      76.216385      36.096371      0.065860237   -9.2449809      0.11977489   
    120000   298.49031     -240.95162     -49164.08       13790.126     -35373.955      1.2167043      144159.02      52.399837      76.216385      36.096371      0.065860237   -9.2449809      0.11977489   
    121000   303.26778      336.48423     -48975.595      14010.843     -34964.752      1.2167043      144159.02      52.399837      76.216385      36.096371      0.065860237   -9.2449809      0.11977489   
    122000   299.16499      51.036117     -49205.635      13821.296     -35384.339      1.2167043      144159.02      52.399837      76.216385      36.096371      0.065860237   -9.2449809      0.11977489   
    123000   300.58193      485.64837     -49040.055      13886.757     -35153.298      1.2167043      144159.02      52.399837      76.216385      36.096371      0.065860237   -9.2449809      0.11977489   
    124000   296.78438     -472.47979     -49136.301      13711.312     -35424.989      1.2167043      144159.02      52.399837      76.216385      36.096371      0.065860237   -9.2449809      0.11977489   
    125000   299.62364      56.009592     -49028.285      13842.485     -35185.8        1.2167043      144159.02      52.399837      76.216385      36.096371      0.065860237   -9.2449809      0.11977489   
    126000   300.32425     -109.03709     -49210.347      13874.853     -35335.494      1.2167043      144159.02      52.399837      76.216385      36.096371      0.065860237   -9.2449809      0.11977489   
    127000   300.69708     -48.788061     -49060.06       13892.077     -35167.983      1.2167043      144159.02      52.399837      76.216385      36.096371      0.065860237   -9.2449809      0.11977489   
    128000   301.55364      31.461724     -49094.521      13931.65      -35162.871      1.2167043      144159.02      52.399837      76.216385      36.096371      0.065860237   -9.2449809      0.11977489   
    129000   298.70836      235.69226     -49160.695      13800.199     -35360.496      1.2167043      144159.02      52.399837      76.216385      36.096371      0.065860237   -9.2449809      0.11977489   
    130000   302.35691     -506.95888     -49120.589      13968.761     -35151.828      1.2167043      144159.02      52.399837      76.216385      36.096371      0.065860237   -9.2449809      0.11977489   
    131000   298.56935     -1106.0956     -49282.574      13793.777     -35488.797      1.2167043      144159.02      52.399837      76.216385      36.096371      0.065860237   -9.2449809      0.11977489   
    132000   300.83064     -766.51464     -49052.091      13898.248     -35153.843      1.2167043      144159.02      52.399837      76.216385      36.096371      0.065860237   -9.2449809      0.11977489   
    133000   299.68067     -1147.4508     -49082.295      13845.12      -35237.176      1.2167043      144159.02      52.399837      76.216385      36.096371      0.065860237   -9.2449809      0.11977489   
    134000   298.14419      552.45703     -49014.24       13774.135     -35240.105      1.2167043      144159.02      52.399837      76.216385      36.096371      0.065860237   -9.2449809      0.11977489   
    135000   305.33212      569.34565     -49182.227      14106.214     -35076.013      1.2167043      144159.02      52.399837      76.216385      36.096371      0.065860237   -9.2449809      0.11977489   
    136000   300.28864     -510.26816     -49109.732      13873.207     -35236.525      1.2167043      144159.02      52.399837      76.216385      36.096371      0.065860237   -9.2449809      0.11977489   
    137000   300.37843     -123.54985     -48979.014      13877.356     -35101.658      1.2167043      144159.02      52.399837      76.216385      36.096371      0.065860237   -9.2449809      0.11977489   
    138000   297.26846      258.36649     -49083.563      13733.676     -35349.886      1.2167043      144159.02      52.399837      76.216385      36.096371      0.065860237   -9.2449809      0.11977489   
    139000   299.20282     -282.71353     -49057.671      13823.043     -35234.628      1.2167043      144159.02      52.399837      76.216385      36.096371      0.065860237   -9.2449809      0.11977489   
    140000   296.01982     -689.35273     -49050.012      13675.99      -35374.022      1.2167043      144159.02      52.399837      76.216385      36.096371      0.065860237   -9.2449809      0.11977489   
    141000   301.00214     -815.53866     -48988.723      13906.171     -35082.552      1.2167043      144159.02      52.399837      76.216385      36.096371      0.065860237   -9.2449809      0.11977489   
    142000   303.39981      1174.2065     -49182.291      14016.942     -35165.349      1.2167043      144159.02      52.399837      76.216385      36.096371      0.065860237   -9.2449809      0.11977489   
    143000   301.27132     -1127.1085     -49172.747      13918.607     -35254.141      1.2167043      144159.02      52.399837      76.216385      36.096371      0.065860237   -9.2449809      0.11977489   
    144000   301.1977       67.637727     -48985.25       13915.206     -35070.044      1.2167043      144159.02      52.399837      76.216385      36.096371      0.065860237   -9.2449809      0.11977489   
    145000   297.94867      267.22346     -49156.858      13765.102     -35391.756      1.2167043      144159.02      52.399837      76.216385      36.096371      0.065860237   -9.2449809      0.11977489   
    146000   301.97691     -411.1246      -49082.772      13951.205     -35131.567      1.2167043      144159.02      52.399837      76.216385      36.096371      0.065860237   -9.2449809      0.11977489   
    147000   301.26398      774.22953     -49320.113      13918.268     -35401.846      1.2167043      144159.02      52.399837      76.216385      36.096371      0.065860237   -9.2449809      0.11977489   
    148000   300.20701      597.69908     -49097.393      13869.436     -35227.957      1.2167043      144159.02      52.399837      76.216385      36.096371      0.065860237   -9.2449809      0.11977489   
    149000   302.06216      48.259705     -49183.325      13955.144     -35228.182      1.2167043      144159.02      52.399837      76.216385      36.096371      0.065860237   -9.2449809      0.11977489   
    150000   298.20613      215.05757     -49238.469      13776.996     -35461.473      1.2167043      144159.02      52.399837      76.216385      36.096371      0.065860237   -9.2449809      0.11977489   
    151000   298.68134      14.670713     -49036.056      13798.951     -35237.106      1.2167043      144159.02      52.399837      76.216385      36.096371      0.065860237   -9.2449809      0.11977489   
    152000   297.74726     -117.14265     -49053.901      13755.797     -35298.104      1.2167043      144159.02      52.399837      76.216385      36.096371      0.065860237   -9.2449809      0.11977489   
    153000   296.79476     -849.21522     -49180.005      13711.792     -35468.213      1.2167043      144159.02      52.399837      76.216385      36.096371      0.065860237   -9.2449809      0.11977489   
    154000   301.50461     -58.407604     -49061.05       13929.385     -35131.666      1.2167043      144159.02      52.399837      76.216385      36.096371      0.065860237   -9.2449809      0.11977489   
    155000   303.43025      357.25438     -49033.869      14018.348     -35015.521      1.2167043      144159.02      52.399837      76.216385      36.096371      0.065860237   -9.2449809      0.11977489   
    156000   295.55842     -981.55388     -48990.048      13654.673     -35335.375      1.2167043      144159.02      52.399837      76.216385      36.096371      0.065860237   -9.2449809      0.11977489   
    157000   300.41705      263.5471      -49117.526      13879.14      -35238.386      1.2167043      144159.02      52.399837      76.216385      36.096371      0.065860237   -9.2449809      0.11977489   
    158000   303.23332      597.69233     -49134.629      14009.25      -35125.379      1.2167043      144159.02      52.399837      76.216385      36.096371      0.065860237   -9.2449809      0.11977489   
    159000   299.72976     -130.63199     -49116.248      13847.387     -35268.86       1.2167043      144159.02      52.399837      76.216385      36.096371      0.065860237   -9.2449809      0.11977489   
    160000   299.78903      512.78708     -48993.929      13850.126     -35143.803      1.2167043      144159.02      52.399837      76.216385      36.096371      0.065860237   -9.2449809      0.11977489   
    161000   302.1275      -946.77793     -49223.255      13958.162     -35265.093      1.2167043      144159.02      52.399837      76.216385      36.096371      0.065860237   -9.2449809      0.11977489   
    162000   295.59782     -795.92605     -49072.582      13656.494     -35416.088      1.2167043      144159.02      52.399837      76.216385      36.096371      0.065860237   -9.2449809      0.11977489   
    163000   305.71131      823.36577     -49216.289      14123.732     -35092.557      1.2167043      144159.02      52.399837      76.216385      36.096371      0.065860237   -9.2449809      0.11977489   
    164000   297.32986     -93.580007     -49059.106      13736.513     -35322.593      1.2167043      144159.02      52.399837      76.216385      36.096371      0.065860237   -9.2449809      0.11977489   
    165000   297.4998      -38.792723     -48974.531      13744.364     -35230.167      1.2167043      144159.02      52.399837      76.216385      36.096371      0.065860237   -9.2449809      0.11977489   
    166000   300.57723      382.63219     -49243.131      13886.54      -35356.59       1.2167043      144159.02      52.399837      76.216385      36.096371      0.065860237   -9.2449809      0.11977489   
    167000   298.13466     -283.36674     -49092.577      13773.695     -35318.882      1.2167043      144159.02      52.399837      76.216385      36.096371      0.065860237   -9.2449809      0.11977489   
    168000   302.79755      981.66072     -48946.558      13989.118     -34957.439      1.2167043      144159.02      52.399837      76.216385      36.096371      0.065860237   -9.2449809      0.11977489   
    169000   299.7152      -1233.6764     -49162.984      13846.715     -35316.269      1.2167043      144159.02      52.399837      76.216385      36.096371      0.065860237   -9.2449809      0.11977489   
    170000   299.26061      525.43603     -48946.537      13825.713     -35120.825      1.2167043      144159.02      52.399837      76.216385      36.096371      0.065860237   -9.2449809      0.11977489   
    171000   299.80311     -444.52433     -49241.008      13850.776     -35390.232      1.2167043      144159.02      52.399837      76.216385      36.096371      0.065860237   -9.2449809      0.11977489   
    172000   302.96912     -5.738788      -49145.941      13997.044     -35148.897      1.2167043      144159.02      52.399837      76.216385      36.096371      0.065860237   -9.2449809      0.11977489   
    173000   300.69493      684.79165     -48929.694      13891.978     -35037.716      1.2167043      144159.02      52.399837      76.216385      36.096371      0.065860237   -9.2449809      0.11977489   
    174000   300.68069      794.93401     -49126.35       13891.32      -35235.03       1.2167043      144159.02      52.399837      76.216385      36.096371      0.065860237   -9.2449809      0.11977489   
    175000   302.65935      1307.1688     -49088.898      13982.733     -35106.165      1.2167043      144159.02      52.399837      76.216385      36.096371      0.065860237   -9.2449809      0.11977489   
    176000   298.29688      754.80811     -49167.153      13781.189     -35385.963      1.2167043      144159.02      52.399837      76.216385      36.096371      0.065860237   -9.2449809      0.11977489   
    177000   300.50055      233.05064     -49092.909      13882.998     -35209.912      1.2167043      144159.02      52.399837      76.216385      36.096371      0.065860237   -9.2449809      0.11977489   
    178000   300.32416     -498.6645      -49102.762      13874.848     -35227.914      1.2167043      144159.02      52.399837      76.216385      36.096371      0.065860237   -9.2449809      0.11977489   
    179000   300.00243      867.21632     -49096.866      13859.985     -35236.881      1.2167043      144159.02      52.399837      76.216385      36.096371      0.065860237   -9.2449809      0.11977489   
    180000   300.9723      -18.963076     -49051.043      13904.792     -35146.251      1.2167043      144159.02      52.399837      76.216385      36.096371      0.065860237   -9.2449809      0.11977489   
    181000   300.68745      145.08538     -49014.913      13891.632     -35123.281      1.2167043      144159.02      52.399837      76.216385      36.096371      0.065860237   -9.2449809      0.11977489   
    182000   299.88593     -319.54929     -49059.654      13854.603     -35205.051      1.2167043      144159.02      52.399837      76.216385      36.096371      0.065860237   -9.2449809      0.11977489   
    183000   300.33449     -152.87085     -48965.087      13875.326     -35089.761      1.2167043      144159.02      52.399837      76.216385      36.096371      0.065860237   -9.2449809      0.11977489   
    184000   297.98604     -88.390396     -49079.845      13766.829     -35313.016      1.2167043      144159.02      52.399837      76.216385      36.096371      0.065860237   -9.2449809      0.11977489   
    185000   301.08151     -4.9096651     -49005.123      13909.838     -35095.285      1.2167043      144159.02      52.399837      76.216385      36.096371      0.065860237   -9.2449809      0.11977489   
    186000   300.82019      413.44341     -48819.031      13897.765     -34921.266      1.2167043      144159.02      52.399837      76.216385      36.096371      0.065860237   -9.2449809      0.11977489   
    187000   295.84348     -82.662615     -49011.159      13667.843     -35343.316      1.2167043      144159.02      52.399837      76.216385      36.096371      0.065860237   -9.2449809      0.11977489   
    188000   302.15724     -63.782038     -49066.92       13959.536     -35107.384      1.2167043      144159.02      52.399837      76.216385      36.096371      0.065860237   -9.2449809      0.11977489   
    189000   297.35547      215.27491     -49044.984      13737.696     -35307.287      1.2167043      144159.02      52.399837      76.216385      36.096371      0.065860237   -9.2449809      0.11977489   
    190000   297.41292     -36.257119     -48937.849      13740.351     -35197.499      1.2167043      144159.02      52.399837      76.216385      36.096371      0.065860237   -9.2449809      0.11977489   
    191000   299.52682      370.87939     -49334.494      13838.012     -35496.482      1.2167043      144159.02      52.399837      76.216385      36.096371      0.065860237   -9.2449809      0.11977489   
    192000   300.49711      944.7302      -49101.726      13882.839     -35218.887      1.2167043      144159.02      52.399837      76.216385      36.096371      0.065860237   -9.2449809      0.11977489   
    193000   298.59278      326.83451     -48956.263      13794.859     -35161.404      1.2167043      144159.02      52.399837      76.216385      36.096371      0.065860237   -9.2449809      0.11977489   
    194000   298.64477     -202.31523     -49069.461      13797.261     -35272.2        1.2167043      144159.02      52.399837      76.216385      36.096371      0.065860237   -9.2449809      0.11977489   
    195000   301.8899       395.1525      -48995.884      13947.185     -35048.699      1.2167043      144159.02      52.399837      76.216385      36.096371      0.065860237   -9.2449809      0.11977489   
    196000   303.25523     -436.3123      -49218.667      14010.263     -35208.404      1.2167043      144159.02      52.399837      76.216385      36.096371      0.065860237   -9.2449809      0.11977489   
    197000   298.23051     -1155.9974     -49134.225      13778.123     -35356.102      1.2167043      144159.02      52.399837      76.216385      36.096371      0.065860237   -9.2449809      0.11977489   
    198000   304.13248     -338.2017      -49145.593      14050.791     -35094.802      1.2167043      144159.02      52.399837      76.216385      36.096371      0.065860237   -9.2449809      0.11977489   
    199000   299.84764      454.65724     -48952.139      13852.834     -35099.306      1.2167043      144159.02      52.399837      76.216385      36.096371      0.065860237   -9.2449809      0.11977489   
    200000   301.44564     -573.07668     -49093.688      13926.66      -35167.028      1.2167043      144159.02      52.399837      76.216385      36.096371      0.065860237   -9.2449809      0.11977489   
    201000   301.34594     -1047.8924     -49183.586      13922.054     -35261.532      1.2167043      144159.02      52.399837      76.216385      36.096371      0.065860237   -9.2449809      0.11977489   
    202000   299.21801     -648.59166     -49229.439      13823.745     -35405.694      1.2167043      144159.02      52.399837      76.216385      36.096371      0.065860237   -9.2449809      0.11977489   
    203000   300.91832     -179.44122     -49096.085      13902.298     -35193.787      1.2167043      144159.02      52.399837      76.216385      36.096371      0.065860237   -9.2449809      0.11977489   
    204000   297.78989     -206.28351     -49014.825      13757.766     -35257.059      1.2167043      144159.02      52.399837      76.216385      36.096371      0.065860237   -9.2449809      0.11977489   
    205000   303.71499     -802.78136     -49068.721      14031.504     -35037.217      1.2167043      144159.02      52.399837      76.216385      36.096371      0.065860237   -9.2449809      0.11977489   
    206000   300.75586     -56.982709     -49096.001      13894.793     -35201.208      1.2167043      144159.02      52.399837      76.216385      36.096371      0.065860237   -9.2449809      0.11977489   
    207000   298.84726      443.76819     -49119.923      13806.616     -35313.306      1.2167043      144159.02      52.399837      76.216385      36.096371      0.065860237   -9.2449809      0.11977489   
    208000   297.9265       166.79104     -48903.161      13764.077     -35139.084      1.2167043      144159.02      52.399837      76.216385      36.096371      0.065860237   -9.2449809      0.11977489   
    209000   299.96086     -93.937086     -49232.621      13858.064     -35374.556      1.2167043      144159.02      52.399837      76.216385      36.096371      0.065860237   -9.2449809      0.11977489   
    210000   302.25611     -183.21369     -49155.5        13964.104     -35191.396      1.2167043      144159.02      52.399837      76.216385      36.096371      0.065860237   -9.2449809      0.11977489   
    211000   301.03743     -565.60961     -49060.766      13907.801     -35152.964      1.2167043      144159.02      52.399837      76.216385      36.096371      0.065860237   -9.2449809      0.11977489   
    212000   301.67183     -310.62805     -49079.832      13937.11      -35142.722      1.2167043      144159.02      52.399837      76.216385      36.096371      0.065860237   -9.2449809      0.11977489   
    213000   300.67686     -304.35402     -49217.09       13891.143     -35325.947      1.2167043      144159.02      52.399837      76.216385      36.096371      0.065860237   -9.2449809      0.11977489   
    214000   302.14645      179.11279     -49128.414      13959.038     -35169.376      1.2167043      144159.02      52.399837      76.216385      36.096371      0.065860237   -9.2449809      0.11977489   
    215000   299.06466      370.5545      -49305.755      13816.66      -35489.095      1.2167043      144159.02      52.399837      76.216385      36.096371      0.065860237   -9.2449809      0.11977489   
    216000   301.65171      538.49351     -49084.821      13936.181     -35148.641      1.2167043      144159.02      52.399837      76.216385      36.096371      0.065860237   -9.2449809      0.11977489   
    217000   298.49961     -415.73041     -49055.679      13790.555     -35265.123      1.2167043      144159.02      52.399837      76.216385      36.096371      0.065860237   -9.2449809      0.11977489   
    218000   300.36743      59.491817     -49118.397      13876.847     -35241.55       1.2167043      144159.02      52.399837      76.216385      36.096371      0.065860237   -9.2449809      0.11977489   
    219000   303.36121      167.95902     -49092.548      14015.159     -35077.389      1.2167043      144159.02      52.399837      76.216385      36.096371      0.065860237   -9.2449809      0.11977489   
    220000   299.20439      124.59583     -48979.645      13823.116     -35156.53       1.2167043      144159.02      52.399837      76.216385      36.096371      0.065860237   -9.2449809      0.11977489   
    221000   297.39538     -82.915558     -49253.23       13739.54      -35513.689      1.2167043      144159.02      52.399837      76.216385      36.096371      0.065860237   -9.2449809      0.11977489   
    222000   298.18078     -4.2853019     -49007.074      13775.825     -35231.249      1.2167043      144159.02      52.399837      76.216385      36.096371      0.065860237   -9.2449809      0.11977489   
    223000   301.3209      -786.55198     -49110.393      13920.898     -35189.496      1.2167043      144159.02      52.399837      76.216385      36.096371      0.065860237   -9.2449809      0.11977489   
    224000   297.76754     -350.42937     -49153.037      13756.734     -35396.303      1.2167043      144159.02      52.399837      76.216385      36.096371      0.065860237   -9.2449809      0.11977489   
    225000   298.65397     -156.93954     -49149.646      13797.686     -35351.959      1.2167043      144159.02      52.399837      76.216385      36.096371      0.065860237   -9.2449809      0.11977489   
    226000   299.13359      272.25271     -49105.325      13819.845     -35285.481      1.2167043      144159.02      52.399837      76.216385      36.096371      0.065860237   -9.2449809      0.11977489   
    227000   299.57156      447.31502     -49183.994      13840.079     -35343.915      1.2167043      144159.02      52.399837      76.216385      36.096371      0.065860237   -9.2449809      0.11977489   
    228000   304.05809      772.01757     -49172.299      14047.354     -35124.944      1.2167043      144159.02      52.399837      76.216385      36.096371      0.065860237   -9.2449809      0.11977489   
    229000   298.62514     -1030.4718     -49073.916      13796.355     -35277.561      1.2167043      144159.02      52.399837      76.216385      36.096371      0.065860237   -9.2449809      0.11977489   
    230000   296.5925      -500.52772     -49264.347      13702.447     -35561.9        1.2167043      144159.02      52.399837      76.216385      36.096371      0.065860237   -9.2449809      0.11977489   
    231000   299.96293      472.65652     -48986.031      13858.16      -35127.871      1.2167043      144159.02      52.399837      76.216385      36.096371      0.065860237   -9.2449809      0.11977489   
    232000   301.75552     -736.77439     -49126.181      13940.977     -35185.204      1.2167043      144159.02      52.399837      76.216385      36.096371      0.065860237   -9.2449809      0.11977489   
    233000   300.21817      28.098173     -49065.55       13869.952     -35195.598      1.2167043      144159.02      52.399837      76.216385      36.096371      0.065860237   -9.2449809      0.11977489   
    234000   299.42587     -798.78185     -49119.333      13833.348     -35285.985      1.2167043      144159.02      52.399837      76.216385      36.096371      0.065860237   -9.2449809      0.11977489   
    235000   297.19526      104.93416     -49192.744      13730.295     -35462.449      1.2167043      144159.02      52.399837      76.216385      36.096371      0.065860237   -9.2449809      0.11977489   
    236000   302.58741      240.59258     -49301.262      13979.41      -35321.852      1.2167043      144159.02      52.399837      76.216385      36.096371      0.065860237   -9.2449809      0.11977489   
    237000   302.17743      201.3053      -49170.089      13960.469     -35209.62       1.2167043      144159.02      52.399837      76.216385      36.096371      0.065860237   -9.2449809      0.11977489   
    238000   300.25339     -116.92225     -49298.281      13871.579     -35426.702      1.2167043      144159.02      52.399837      76.216385      36.096371      0.065860237   -9.2449809      0.11977489   
    239000   300.80872      253.17476     -49101.217      13897.235     -35203.982      1.2167043      144159.02      52.399837      76.216385      36.096371      0.065860237   -9.2449809      0.11977489   
    240000   298.98281     -159.99938     -49119.65       13812.879     -35306.772      1.2167043      144159.02      52.399837      76.216385      36.096371      0.065860237   -9.2449809      0.11977489   
    241000   302.13565      463.10107     -49058.607      13958.539     -35100.068      1.2167043      144159.02      52.399837      76.216385      36.096371      0.065860237   -9.2449809      0.11977489   
    242000   297.11838      23.116875     -49204.614      13726.743     -35477.871      1.2167043      144159.02      52.399837      76.216385      36.096371      0.065860237   -9.2449809      0.11977489   
    243000   303.08283      699.54713     -49183.338      14002.298     -35181.04       1.2167043      144159.02      52.399837      76.216385      36.096371      0.065860237   -9.2449809      0.11977489   
    244000   299.81475     -170.49406     -49200.129      13851.314     -35348.814      1.2167043      144159.02      52.399837      76.216385      36.096371      0.065860237   -9.2449809      0.11977489   
    245000   301.20804     -199.26554     -49084.689      13915.683     -35169.006      1.2167043      144159.02      52.399837      76.216385      36.096371      0.065860237   -9.2449809      0.11977489   
    246000   299.41657      246.00799     -49075.771      13832.918     -35242.852      1.2167043      144159.02      52.399837      76.216385      36.096371      0.065860237   -9.2449809      0.11977489   
    247000   295.39499      75.168601     -49242.514      13647.123     -35595.391      1.2167043      144159.02      52.399837      76.216385      36.096371      0.065860237   -9.2449809      0.11977489   
    248000   301.36989      514.81647     -49057.205      13923.161     -35134.045      1.2167043      144159.02      52.399837      76.216385      36.096371      0.065860237   -9.2449809      0.11977489   
    249000   299.10277      126.52748     -49088.647      13818.421     -35270.226      1.2167043      144159.02      52.399837      76.216385      36.096371      0.065860237   -9.2449809      0.11977489   
    250000   297.70211      243.58246     -49155.944      13753.711     -35402.233      1.2167043      144159.02      52.399837      76.216385      36.096371      0.065860237   -9.2449809      0.11977489   
    251000   299.90345      562.32508     -49108.089      13855.412     -35252.677      1.2167043      144159.02      52.399837      76.216385      36.096371      0.065860237   -9.2449809      0.11977489   
    252000   300.70202      360.24322     -48996.516      13892.305     -35104.211      1.2167043      144159.02      52.399837      76.216385      36.096371      0.065860237   -9.2449809      0.11977489   
    253000   299.5092       327.82508     -49184.078      13837.198     -35346.881      1.2167043      144159.02      52.399837      76.216385      36.096371      0.065860237   -9.2449809      0.11977489   
    254000   298.52159     -881.38727     -49138.32       13791.571     -35346.749      1.2167043      144159.02      52.399837      76.216385      36.096371      0.065860237   -9.2449809      0.11977489   
    255000   301.51223      787.97187     -48979.588      13929.737     -35049.851      1.2167043      144159.02      52.399837      76.216385      36.096371      0.065860237   -9.2449809      0.11977489   
    256000   299.67352     -400.12587     -49143.58       13844.789     -35298.791      1.2167043      144159.02      52.399837      76.216385      36.096371      0.065860237   -9.2449809      0.11977489   
    257000   305.5213      -559.20474     -49108.877      14114.954     -34993.923      1.2167043      144159.02      52.399837      76.216385      36.096371      0.065860237   -9.2449809      0.11977489   
    258000   300.24998      435.03871     -49015.51       13871.422     -35144.089      1.2167043      144159.02      52.399837      76.216385      36.096371      0.065860237   -9.2449809      0.11977489   
    259000   300.04666     -341.80037     -49127.293      13862.028     -35265.265      1.2167043      144159.02      52.399837      76.216385      36.096371      0.065860237   -9.2449809      0.11977489   
    260000   298.9168      -249.70079     -49051.541      13809.829     -35241.712      1.2167043      144159.02      52.399837      76.216385      36.096371      0.065860237   -9.2449809      0.11977489   
    261000   302.79075      349.68095     -49335.603      13988.804     -35346.799      1.2167043      144159.02      52.399837      76.216385      36.096371      0.065860237   -9.2449809      0.11977489   
    262000   303.03202     -643.99162     -49044.383      13999.951     -35044.432      1.2167043      144159.02      52.399837      76.216385      36.096371      0.065860237   -9.2449809      0.11977489   
    263000   300.6471      -776.81722     -49091.575      13889.768     -35201.807      1.2167043      144159.02      52.399837      76.216385      36.096371      0.065860237   -9.2449809      0.11977489   
    264000   297.12206     -700.01212     -49356.07       13726.913     -35629.157      1.2167043      144159.02      52.399837      76.216385      36.096371      0.065860237   -9.2449809      0.11977489   
    265000   300.21222      1299.2698     -49017.137      13869.677     -35147.459      1.2167043      144159.02      52.399837      76.216385      36.096371      0.065860237   -9.2449809      0.11977489   
    266000   300.12886      939.92865     -49229.391      13865.826     -35363.565      1.2167043      144159.02      52.399837      76.216385      36.096371      0.065860237   -9.2449809      0.11977489   
    267000   301.86795     -406.21935     -49132.795      13946.171     -35186.624      1.2167043      144159.02      52.399837      76.216385      36.096371      0.065860237   -9.2449809      0.11977489   
    268000   297.72659      431.025       -49063.083      13754.842     -35308.241      1.2167043      144159.02      52.399837      76.216385      36.096371      0.065860237   -9.2449809      0.11977489   
    269000   297.33373      48.632572     -49252.204      13736.692     -35515.512      1.2167043      144159.02      52.399837      76.216385      36.096371      0.065860237   -9.2449809      0.11977489   
    270000   301.64838      511.43467     -49135.306      13936.027     -35199.279      1.2167043      144159.02      52.399837      76.216385      36.096371      0.065860237   -9.2449809      0.11977489   
    271000   298.2096      -707.18414     -49125.034      13777.157     -35347.878      1.2167043      144159.02      52.399837      76.216385      36.096371      0.065860237   -9.2449809      0.11977489   
    272000   299.79928      106.82425     -49006.403      13850.599     -35155.804      1.2167043      144159.02      52.399837      76.216385      36.096371      0.065860237   -9.2449809      0.11977489   
    273000   301.56213     -252.5159      -49069.255      13932.042     -35137.213      1.2167043      144159.02      52.399837      76.216385      36.096371      0.065860237   -9.2449809      0.11977489   
    274000   298.61227      629.11212     -49174.865      13795.76      -35379.105      1.2167043      144159.02      52.399837      76.216385      36.096371      0.065860237   -9.2449809      0.11977489   
    275000   302.99493     -560.46278     -49167.267      13998.237     -35169.03       1.2167043      144159.02      52.399837      76.216385      36.096371      0.065860237   -9.2449809      0.11977489   
    276000   299.76362      848.85755     -49251.972      13848.952     -35403.02       1.2167043      144159.02      52.399837      76.216385      36.096371      0.065860237   -9.2449809      0.11977489   
    277000   299.01449     -26.467229     -49020.913      13814.342     -35206.571      1.2167043      144159.02      52.399837      76.216385      36.096371      0.065860237   -9.2449809      0.11977489   
    278000   298.35746     -206.67906     -49103.486      13783.988     -35319.498      1.2167043      144159.02      52.399837      76.216385      36.096371      0.065860237   -9.2449809      0.11977489   
    279000   298.52383     -558.98102     -49227.047      13791.674     -35435.373      1.2167043      144159.02      52.399837      76.216385      36.096371      0.065860237   -9.2449809      0.11977489   
    280000   300.58858     -959.73095     -49137.258      13887.064     -35250.193      1.2167043      144159.02      52.399837      76.216385      36.096371      0.065860237   -9.2449809      0.11977489   
    281000   299.04028      985.39765     -49286.575      13815.534     -35471.041      1.2167043      144159.02      52.399837      76.216385      36.096371      0.065860237   -9.2449809      0.11977489   
    282000   300.75418      1034.1408     -49140.781      13894.715     -35246.065      1.2167043      144159.02      52.399837      76.216385      36.096371      0.065860237   -9.2449809      0.11977489   
    283000   298.72625     -112.86286     -49357.106      13801.026     -35556.081      1.2167043      144159.02      52.399837      76.216385      36.096371      0.065860237   -9.2449809      0.11977489   
    284000   299.50102     -212.66657     -49000.832      13836.82      -35164.012      1.2167043      144159.02      52.399837      76.216385      36.096371      0.065860237   -9.2449809      0.11977489   
    285000   301.77201     -176.48429     -49061.87       13941.739     -35120.131      1.2167043      144159.02      52.399837      76.216385      36.096371      0.065860237   -9.2449809      0.11977489   
    286000   298.52915      109.81636     -49117.076      13791.92      -35325.157      1.2167043      144159.02      52.399837      76.216385      36.096371      0.065860237   -9.2449809      0.11977489   
    287000   300.97536     -424.27292     -48985.021      13904.934     -35080.087      1.2167043      144159.02      52.399837      76.216385      36.096371      0.065860237   -9.2449809      0.11977489   
    288000   299.7758       954.47223     -49085.249      13849.514     -35235.734      1.2167043      144159.02      52.399837      76.216385      36.096371      0.065860237   -9.2449809      0.11977489   
    289000   297.03609     -543.96178     -49129.091      13722.941     -35406.15       1.2167043      144159.02      52.399837      76.216385      36.096371      0.065860237   -9.2449809      0.11977489   
    290000   303.26198     -257.82078     -49058.817      14010.575     -35048.243      1.2167043      144159.02      52.399837      76.216385      36.096371      0.065860237   -9.2449809      0.11977489   
    291000   298.25508     -155.48236     -49063.649      13779.258     -35284.391      1.2167043      144159.02      52.399837      76.216385      36.096371      0.065860237   -9.2449809      0.11977489   
    292000   298.6323      -214.46114     -49016.331      13796.685     -35219.646      1.2167043      144159.02      52.399837      76.216385      36.096371      0.065860237   -9.2449809      0.11977489   
    293000   298.46022      859.33283     -49019.359      13788.735     -35230.624      1.2167043      144159.02      52.399837      76.216385      36.096371      0.065860237   -9.2449809      0.11977489   
    294000   301.01551      655.43241     -49119.256      13906.789     -35212.467      1.2167043      144159.02      52.399837      76.216385      36.096371      0.065860237   -9.2449809      0.11977489   
    295000   294.0041      -1293.9657     -49106.92       13582.864     -35524.055      1.2167043      144159.02      52.399837      76.216385      36.096371      0.065860237   -9.2449809      0.11977489   
    296000   302.49622      193.36285     -49205.09       13975.197     -35229.893      1.2167043      144159.02      52.399837      76.216385      36.096371      0.065860237   -9.2449809      0.11977489   
    297000   302.554       -213.67527     -49065.105      13977.866     -35087.239      1.2167043      144159.02      52.399837      76.216385      36.096371      0.065860237   -9.2449809      0.11977489   
    298000   299.18623     -417.77253     -49079.853      13822.277     -35257.576      1.2167043      144159.02      52.399837      76.216385      36.096371      0.065860237   -9.2449809      0.11977489   
    299000   298.09603      894.64038     -49010.918      13771.91      -35239.008      1.2167043      144159.02      52.399837      76.216385      36.096371      0.065860237   -9.2449809      0.11977489   
    300000   297.81012     -660.38472     -49115.11       13758.701     -35356.409      1.2167043      144159.02      52.399837      76.216385      36.096371      0.065860237   -9.2449809      0.11977489   
    301000   299.42604      291.25233     -48979.275      13833.356     -35145.92       1.2167043      144159.02      52.399837      76.216385      36.096371      0.065860237   -9.2449809      0.11977489   
    302000   299.8719       208.95213     -49077.098      13853.954     -35223.143      1.2167043      144159.02      52.399837      76.216385      36.096371      0.065860237   -9.2449809      0.11977489   
    303000   298.38058      482.42642     -49117.529      13785.056     -35332.473      1.2167043      144159.02      52.399837      76.216385      36.096371      0.065860237   -9.2449809      0.11977489   
    304000   301.15614     -423.46414     -49106.046      13913.285     -35192.761      1.2167043      144159.02      52.399837      76.216385      36.096371      0.065860237   -9.2449809      0.11977489   
    305000   297.02242     -656.28587     -49229.027      13722.309     -35506.718      1.2167043      144159.02      52.399837      76.216385      36.096371      0.065860237   -9.2449809      0.11977489   
    306000   304.68467     -148.88266     -49140.506      14076.302     -35064.204      1.2167043      144159.02      52.399837      76.216385      36.096371      0.065860237   -9.2449809      0.11977489   
    307000   301.486       -446.99561     -49097.321      13928.525     -35168.795      1.2167043      144159.02      52.399837      76.216385      36.096371      0.065860237   -9.2449809      0.11977489   
    308000   303.90191      374.1511      -49104.932      14040.139     -35064.793      1.2167043      144159.02      52.399837      76.216385      36.096371      0.065860237   -9.2449809      0.11977489   
    309000   298.26748     -747.89564     -49126.074      13779.831     -35346.244      1.2167043      144159.02      52.399837      76.216385      36.096371      0.065860237   -9.2449809      0.11977489   
    310000   300.70712      486.55022     -49001.616      13892.541     -35109.075      1.2167043      144159.02      52.399837      76.216385      36.096371      0.065860237   -9.2449809      0.11977489   
    311000   300.22001     -168.65945     -49119.74       13870.037     -35249.704      1.2167043      144159.02      52.399837      76.216385      36.096371      0.065860237   -9.2449809      0.11977489   
    312000   302.19104     -167.63374     -49125.483      13961.098     -35164.386      1.2167043      144159.02      52.399837      76.216385      36.096371      0.065860237   -9.2449809      0.11977489   
    313000   298.93709     -262.13116     -49194.388      13810.767     -35383.622      1.2167043      144159.02      52.399837      76.216385      36.096371      0.065860237   -9.2449809      0.11977489   
    314000   300.3332       356.57925     -49188.996      13875.266     -35313.73       1.2167043      144159.02      52.399837      76.216385      36.096371      0.065860237   -9.2449809      0.11977489   
    315000   298.43692     -499.24359     -48992.928      13787.659     -35205.27       1.2167043      144159.02      52.399837      76.216385      36.096371      0.065860237   -9.2449809      0.11977489   
    316000   301.08001      274.5343      -49073.948      13909.769     -35164.18       1.2167043      144159.02      52.399837      76.216385      36.096371      0.065860237   -9.2449809      0.11977489   
    317000   299.88309     -552.64511     -49159.303      13854.471     -35304.832      1.2167043      144159.02      52.399837      76.216385      36.096371      0.065860237   -9.2449809      0.11977489   
    318000   299.34819     -352.22064     -48971.233      13829.759     -35141.474      1.2167043      144159.02      52.399837      76.216385      36.096371      0.065860237   -9.2449809      0.11977489   
    319000   298.72404     -492.0324      -49066.131      13800.924     -35265.207      1.2167043      144159.02      52.399837      76.216385      36.096371      0.065860237   -9.2449809      0.11977489   
    320000   303.07496     -562.82467     -49084.732      14001.934     -35082.798      1.2167043      144159.02      52.399837      76.216385      36.096371      0.065860237   -9.2449809      0.11977489   
    321000   294.20259     -150.62377     -49094.843      13592.035     -35502.808      1.2167043      144159.02      52.399837      76.216385      36.096371      0.065860237   -9.2449809      0.11977489   
    322000   300.21122      698.17901     -49119.008      13869.631     -35249.377      1.2167043      144159.02      52.399837      76.216385      36.096371      0.065860237   -9.2449809      0.11977489   
    323000   300.28291      143.21602     -49132.882      13872.943     -35259.939      1.2167043      144159.02      52.399837      76.216385      36.096371      0.065860237   -9.2449809      0.11977489   
    324000   297.10649      200.06314     -49277.965      13726.193     -35551.772      1.2167043      144159.02      52.399837      76.216385      36.096371      0.065860237   -9.2449809      0.11977489   
    325000   299.63186     -497.77955     -49023.233      13842.864     -35180.368      1.2167043      144159.02      52.399837      76.216385      36.096371      0.065860237   -9.2449809      0.11977489   
    326000   296.61094     -596.53608     -49269.909      13703.299     -35566.61       1.2167043      144159.02      52.399837      76.216385      36.096371      0.065860237   -9.2449809      0.11977489   
    327000   299.69506     -451.03602     -49073.912      13845.785     -35228.128      1.2167043      144159.02      52.399837      76.216385      36.096371      0.065860237   -9.2449809      0.11977489   
    328000   300.61728      569.91681     -49091.853      13888.39      -35203.462      1.2167043      144159.02      52.399837      76.216385      36.096371      0.065860237   -9.2449809      0.11977489   
    329000   298.31782      465.53115     -49153.321      13782.156     -35371.164      1.2167043      144159.02      52.399837      76.216385      36.096371      0.065860237   -9.2449809      0.11977489   
    330000   297.72581     -771.79667     -49108.521      13754.806     -35353.715      1.2167043      144159.02      52.399837      76.216385      36.096371      0.065860237   -9.2449809      0.11977489   
    331000   301.81471     -72.146193     -49232.707      13943.711     -35288.996      1.2167043      144159.02      52.399837      76.216385      36.096371      0.065860237   -9.2449809      0.11977489   
    332000   299.20424      290.35346     -49055.7        13823.109     -35232.591      1.2167043      144159.02      52.399837      76.216385      36.096371      0.065860237   -9.2449809      0.11977489   
    333000   295.60667     -1.6116278     -49176.383      13656.902     -35519.48       1.2167043      144159.02      52.399837      76.216385      36.096371      0.065860237   -9.2449809      0.11977489   
    334000   300.82743     -441.1693      -49093.424      13898.099     -35195.324      1.2167043      144159.02      52.399837      76.216385      36.096371      0.065860237   -9.2449809      0.11977489   
    335000   298.35495      651.68989     -49141.61       13783.872     -35357.738      1.2167043      144159.02      52.399837      76.216385      36.096371      0.065860237   -9.2449809      0.11977489   
    336000   303.0482       242.73535     -49115.606      14000.698     -35114.908      1.2167043      144159.02      52.399837      76.216385      36.096371      0.065860237   -9.2449809      0.11977489   
    337000   298.63142     -967.97543     -49338.072      13796.645     -35541.427      1.2167043      144159.02      52.399837      76.216385      36.096371      0.065860237   -9.2449809      0.11977489   
    338000   300.19845      12.606097     -49104.019      13869.041     -35234.978      1.2167043      144159.02      52.399837      76.216385      36.096371      0.065860237   -9.2449809      0.11977489   
    339000   300.37671     -523.66405     -49225.523      13877.276     -35348.247      1.2167043      144159.02      52.399837      76.216385      36.096371      0.065860237   -9.2449809      0.11977489   
    340000   299.366        209.67278     -49253.795      13830.582     -35423.214      1.2167043      144159.02      52.399837      76.216385      36.096371      0.065860237   -9.2449809      0.11977489   
    341000   299.01751     -345.13983     -48938.964      13814.482     -35124.482      1.2167043      144159.02      52.399837      76.216385      36.096371      0.065860237   -9.2449809      0.11977489   
    342000   298.43865      505.95528     -49117.62       13787.739     -35329.881      1.2167043      144159.02      52.399837      76.216385      36.096371      0.065860237   -9.2449809      0.11977489   
    343000   297.42085     -249.95098     -48946.06       13740.717     -35205.343      1.2167043      144159.02      52.399837      76.216385      36.096371      0.065860237   -9.2449809      0.11977489   
    344000   303.70446     -525.29317     -49120.327      14031.017     -35089.309      1.2167043      144159.02      52.399837      76.216385      36.096371      0.065860237   -9.2449809      0.11977489   
    345000   300.38593      633.36293     -49064.392      13877.702     -35186.69       1.2167043      144159.02      52.399837      76.216385      36.096371      0.065860237   -9.2449809      0.11977489   
    346000   301.82615      412.40123     -49133.41       13944.24      -35189.17       1.2167043      144159.02      52.399837      76.216385      36.096371      0.065860237   -9.2449809      0.11977489   
    347000   297.49914      264.18027     -49045.813      13744.334     -35301.48       1.2167043      144159.02      52.399837      76.216385      36.096371      0.065860237   -9.2449809      0.11977489   
    348000   302.18553      566.62686     -49038.068      13960.843     -35077.225      1.2167043      144159.02      52.399837      76.216385      36.096371      0.065860237   -9.2449809      0.11977489   
    349000   301.99443      540.55723     -49086.551      13952.014     -35134.537      1.2167043      144159.02      52.399837      76.216385      36.096371      0.065860237   -9.2449809      0.11977489   
    350000   302.50393     -564.26436     -49213.312      13975.553     -35237.759      1.2167043      144159.02      52.399837      76.216385      36.096371      0.065860237   -9.2449809      0.11977489   
    351000   301.64729      730.81657     -49154.498      13935.976     -35218.521      1.2167043      144159.02      52.399837      76.216385      36.096371      0.065860237   -9.2449809      0.11977489   
    352000   300.63092      119.04668     -49159.879      13889.021     -35270.858      1.2167043      144159.02      52.399837      76.216385      36.096371      0.065860237   -9.2449809      0.11977489   
    353000   300.22611     -202.07907     -49054.563      13870.319     -35184.244      1.2167043      144159.02      52.399837      76.216385      36.096371      0.065860237   -9.2449809      0.11977489   
    354000   303.08061      579.9892      -49196.826      14002.196     -35194.631      1.2167043      144159.02      52.399837      76.216385      36.096371      0.065860237   -9.2449809      0.11977489   
    355000   298.56322      447.30767     -49123.279      13793.494     -35329.785      1.2167043      144159.02      52.399837      76.216385      36.096371      0.065860237   -9.2449809      0.11977489   
    356000   298.69563      24.670616     -49175.17       13799.611     -35375.559      1.2167043      144159.02      52.399837      76.216385      36.096371      0.065860237   -9.2449809      0.11977489   
    357000   303.88118      165.03045     -49086.574      14039.181     -35047.392      1.2167043      144159.02      52.399837      76.216385      36.096371      0.065860237   -9.2449809      0.11977489   
    358000   301.70165      761.74043     -49072.694      13938.488     -35134.206      1.2167043      144159.02      52.399837      76.216385      36.096371      0.065860237   -9.2449809      0.11977489   
    359000   299.32006     -291.96272     -49292.86       13828.459     -35464.4        1.2167043      144159.02      52.399837      76.216385      36.096371      0.065860237   -9.2449809      0.11977489   
    360000   299.11075      474.66628     -48919.945      13818.79      -35101.155      1.2167043      144159.02      52.399837      76.216385      36.096371      0.065860237   -9.2449809      0.11977489   
    361000   302.28917      636.40513     -49111.862      13965.631     -35146.231      1.2167043      144159.02      52.399837      76.216385      36.096371      0.065860237   -9.2449809      0.11977489   
    362000   298.90234      231.2159      -49082.536      13809.161     -35273.375      1.2167043      144159.02      52.399837      76.216385      36.096371      0.065860237   -9.2449809      0.11977489   
    363000   298.14526     -547.64856     -49122.868      13774.184     -35348.684      1.2167043      144159.02      52.399837      76.216385      36.096371      0.065860237   -9.2449809      0.11977489   
    364000   305.34675     -430.74331     -49191.881      14106.89      -35084.991      1.2167043      144159.02      52.399837      76.216385      36.096371      0.065860237   -9.2449809      0.11977489   
    365000   296.97721      727.44423     -49173.942      13720.221     -35453.722      1.2167043      144159.02      52.399837      76.216385      36.096371      0.065860237   -9.2449809      0.11977489   
    366000   298.8181       835.6456      -48999.722      13805.269     -35194.453      1.2167043      144159.02      52.399837      76.216385      36.096371      0.065860237   -9.2449809      0.11977489   
    367000   297.61004     -252.17077     -49084.706      13749.458     -35335.248      1.2167043      144159.02      52.399837      76.216385      36.096371      0.065860237   -9.2449809      0.11977489   
    368000   303.3669       398.5048      -49154.628      14015.422     -35139.206      1.2167043      144159.02      52.399837      76.216385      36.096371      0.065860237   -9.2449809      0.11977489   
    369000   300.40752      298.46271     -49164.374      13878.7       -35285.674      1.2167043      144159.02      52.399837      76.216385      36.096371      0.065860237   -9.2449809      0.11977489   
    370000   299.83382      427.88975     -49253.349      13852.195     -35401.154      1.2167043      144159.02      52.399837      76.216385      36.096371      0.065860237   -9.2449809      0.11977489   
    371000   298.95073     -981.10944     -49038.884      13811.397     -35227.488      1.2167043      144159.02      52.399837      76.216385      36.096371      0.065860237   -9.2449809      0.11977489   
    372000   301.93963     -717.09144     -49081.674      13949.482     -35132.192      1.2167043      144159.02      52.399837      76.216385      36.096371      0.065860237   -9.2449809      0.11977489   
    373000   300.46675      417.48559     -49144.109      13881.436     -35262.673      1.2167043      144159.02      52.399837      76.216385      36.096371      0.065860237   -9.2449809      0.11977489   
    374000   301.29063     -493.75541     -49201.345      13919.499     -35281.845      1.2167043      144159.02      52.399837      76.216385      36.096371      0.065860237   -9.2449809      0.11977489   
    375000   298.6105      -293.20238     -48981.917      13795.678     -35186.239      1.2167043      144159.02      52.399837      76.216385      36.096371      0.065860237   -9.2449809      0.11977489   
    376000   300.01453      213.18172     -49195.13       13860.544     -35334.587      1.2167043      144159.02      52.399837      76.216385      36.096371      0.065860237   -9.2449809      0.11977489   
    377000   303.42621      264.07648     -49032.345      14018.162     -35014.183      1.2167043      144159.02      52.399837      76.216385      36.096371      0.065860237   -9.2449809      0.11977489   
    378000   300.73554      741.78393     -49188.467      13893.854     -35294.613      1.2167043      144159.02      52.399837      76.216385      36.096371      0.065860237   -9.2449809      0.11977489   
    379000   300.97547      373.82199     -48974.41       13904.939     -35069.471      1.2167043      144159.02      52.399837      76.216385      36.096371      0.065860237   -9.2449809      0.11977489   
    380000   298.57878      377.26769     -49104.989      13794.213     -35310.776      1.2167043      144159.02      52.399837      76.216385      36.096371      0.065860237   -9.2449809      0.11977489   
    381000   303.2014      -287.77841     -49054.05       14007.776     -35046.275      1.2167043      144159.02      52.399837      76.216385      36.096371      0.065860237   -9.2449809      0.11977489   
    382000   299.0314      -925.40773     -49025.061      13815.124     -35209.938      1.2167043      144159.02      52.399837      76.216385      36.096371      0.065860237   -9.2449809      0.11977489   
    383000   298.14572     -602.22344     -48935.38       13774.206     -35161.174      1.2167043      144159.02      52.399837      76.216385      36.096371      0.065860237   -9.2449809      0.11977489   
    384000   300.68146     -993.47376     -49013.269      13891.356     -35121.913      1.2167043      144159.02      52.399837      76.216385      36.096371      0.065860237   -9.2449809      0.11977489   
    385000   298.16731     -592.512       -49148.773      13775.203     -35373.57       1.2167043      144159.02      52.399837      76.216385      36.096371      0.065860237   -9.2449809      0.11977489   
    386000   299.41109     -379.95387     -49178.69       13832.665     -35346.025      1.2167043      144159.02      52.399837      76.216385      36.096371      0.065860237   -9.2449809      0.11977489   
    387000   296.73047     -263.68964     -49074.751      13708.822     -35365.93       1.2167043      144159.02      52.399837      76.216385      36.096371      0.065860237   -9.2449809      0.11977489   
    388000   300.65269     -31.473731     -49150.467      13890.026     -35260.441      1.2167043      144159.02      52.399837      76.216385      36.096371      0.065860237   -9.2449809      0.11977489   
    389000   300.23625     -198.24435     -49160.35       13870.787     -35289.563      1.2167043      144159.02      52.399837      76.216385      36.096371      0.065860237   -9.2449809      0.11977489   
    390000   301.90428     -49.50028      -49053.525      13947.849     -35105.676      1.2167043      144159.02      52.399837      76.216385      36.096371      0.065860237   -9.2449809      0.11977489   
    391000   300.69987     -37.688667     -49123.51       13892.206     -35231.304      1.2167043      144159.02      52.399837      76.216385      36.096371      0.065860237   -9.2449809      0.11977489   
    392000   299.39998     -145.43005     -49084.063      13832.152     -35251.911      1.2167043      144159.02      52.399837      76.216385      36.096371      0.065860237   -9.2449809      0.11977489   
    393000   299.16181     -166.98028     -49193.365      13821.149     -35372.216      1.2167043      144159.02      52.399837      76.216385      36.096371      0.065860237   -9.2449809      0.11977489   
    394000   304.35388     -209.44977     -49193.781      14061.02      -35132.761      1.2167043      144159.02      52.399837      76.216385      36.096371      0.065860237   -9.2449809      0.11977489   
    395000   298.11899      202.02629     -49287.895      13772.97      -35514.924      1.2167043      144159.02      52.399837      76.216385      36.096371      0.065860237   -9.2449809      0.11977489   
    396000   301.19791     -873.94227     -49035.096      13915.216     -35119.881      1.2167043      144159.02      52.399837      76.216385      36.096371      0.065860237   -9.2449809      0.11977489   
    397000   302.48972     -321.97575     -49119.972      13974.896     -35145.076      1.2167043      144159.02      52.399837      76.216385      36.096371      0.065860237   -9.2449809      0.11977489   
    398000   298.22547      171.74573     -49007.063      13777.89      -35229.173      1.2167043      144159.02      52.399837      76.216385      36.096371      0.065860237   -9.2449809      0.11977489   
    399000   300.48391     -188.44947     -49102.026      13882.229     -35219.797      1.2167043      144159.02      52.399837      76.216385      36.096371      0.065860237   -9.2449809      0.11977489   
    400000   299.87104      449.37603     -49109.016      13853.915     -35255.101      1.2167043      144159.02      52.399837      76.216385      36.096371      0.065860237   -9.2449809      0.11977489   
    401000   297.96792      436.94001     -48928.118      13765.991     -35162.127      1.2167043      144159.02      52.399837      76.216385      36.096371      0.065860237   -9.2449809      0.11977489   
    402000   297.88884      251.25902     -49081.834      13762.338     -35319.496      1.2167043      144159.02      52.399837      76.216385      36.096371      0.065860237   -9.2449809      0.11977489   
    403000   299.51668      217.61949     -49021.533      13837.543     -35183.99       1.2167043      144159.02      52.399837      76.216385      36.096371      0.065860237   -9.2449809      0.11977489   
    404000   298.48313      843.01149     -49111.236      13789.794     -35321.442      1.2167043      144159.02      52.399837      76.216385      36.096371      0.065860237   -9.2449809      0.11977489   
    405000   300.69675      184.68793     -49092.104      13892.062     -35200.042      1.2167043      144159.02      52.399837      76.216385      36.096371      0.065860237   -9.2449809      0.11977489   
    406000   295.02365      422.42289     -49126.561      13629.967     -35496.593      1.2167043      144159.02      52.399837      76.216385      36.096371      0.065860237   -9.2449809      0.11977489   
    407000   300.07952     -70.466238     -49056.403      13863.546     -35192.857      1.2167043      144159.02      52.399837      76.216385      36.096371      0.065860237   -9.2449809      0.11977489   
    408000   298.37925     -228.84656     -49071.952      13784.995     -35286.957      1.2167043      144159.02      52.399837      76.216385      36.096371      0.065860237   -9.2449809      0.11977489   
    409000   298.77502     -641.61089     -49049.738      13803.279     -35246.459      1.2167043      144159.02      52.399837      76.216385      36.096371      0.065860237   -9.2449809      0.11977489   
    410000   299.17201      860.1251      -49033.878      13821.62      -35212.258      1.2167043      144159.02      52.399837      76.216385      36.096371      0.065860237   -9.2449809      0.11977489   
    411000   301.51367      183.68596     -49244.417      13929.803     -35314.614      1.2167043      144159.02      52.399837      76.216385      36.096371      0.065860237   -9.2449809      0.11977489   
    412000   301.67136     -898.59087     -49100.418      13937.089     -35163.329      1.2167043      144159.02      52.399837      76.216385      36.096371      0.065860237   -9.2449809      0.11977489   
    413000   298.51677     -380.10464     -49229.831      13791.348     -35438.483      1.2167043      144159.02      52.399837      76.216385      36.096371      0.065860237   -9.2449809      0.11977489   
    414000   300.98277     -650.34345     -48916.715      13905.276     -35011.438      1.2167043      144159.02      52.399837      76.216385      36.096371      0.065860237   -9.2449809      0.11977489   
    415000   298.65324      969.02837     -49093.002      13797.653     -35295.35       1.2167043      144159.02      52.399837      76.216385      36.096371      0.065860237   -9.2449809      0.11977489   
    416000   300.51898     -580.71755     -49079.66       13883.849     -35195.811      1.2167043      144159.02      52.399837      76.216385      36.096371      0.065860237   -9.2449809      0.11977489   
    417000   298.92152     -174.72383     -49060.743      13810.047     -35250.696      1.2167043      144159.02      52.399837      76.216385      36.096371      0.065860237   -9.2449809      0.11977489   
    418000   298.5344       465.78054     -48928.407      13792.162     -35136.245      1.2167043      144159.02      52.399837      76.216385      36.096371      0.065860237   -9.2449809      0.11977489   
    419000   298.3903      -405.58025     -49327.573      13785.505     -35542.068      1.2167043      144159.02      52.399837      76.216385      36.096371      0.065860237   -9.2449809      0.11977489   
    420000   299.08714     -714.8315      -49075.672      13817.699     -35257.973      1.2167043      144159.02      52.399837      76.216385      36.096371      0.065860237   -9.2449809      0.11977489   
    421000   304.48146     -934.70569     -49068.447      14066.914     -35001.534      1.2167043      144159.02      52.399837      76.216385      36.096371      0.065860237   -9.2449809      0.11977489   
    422000   300.55924     -323.58832     -49095.597      13885.709     -35209.888      1.2167043      144159.02      52.399837      76.216385      36.096371      0.065860237   -9.2449809      0.11977489   
    423000   298.74454     -144.03891     -48979.035      13801.871     -35177.164      1.2167043      144159.02      52.399837      76.216385      36.096371      0.065860237   -9.2449809      0.11977489   
    424000   298.15765      397.91032     -49258.087      13774.757     -35483.33       1.2167043      144159.02      52.399837      76.216385      36.096371      0.065860237   -9.2449809      0.11977489   
    425000   299.50515     -178.73814     -49006.609      13837.011     -35169.599      1.2167043      144159.02      52.399837      76.216385      36.096371      0.065860237   -9.2449809      0.11977489   
    426000   299.19278      36.857455     -49054.28       13822.579     -35231.701      1.2167043      144159.02      52.399837      76.216385      36.096371      0.065860237   -9.2449809      0.11977489   
    427000   304.03302     -6.7356009     -49091.226      14046.196     -35045.03       1.2167043      144159.02      52.399837      76.216385      36.096371      0.065860237   -9.2449809      0.11977489   
    428000   297.43248     -1059.0049     -49011.056      13741.254     -35269.802      1.2167043      144159.02      52.399837      76.216385      36.096371      0.065860237   -9.2449809      0.11977489   
    429000   299.25498      433.91729     -48953.96       13825.453     -35128.507      1.2167043      144159.02      52.399837      76.216385      36.096371      0.065860237   -9.2449809      0.11977489   
    430000   300.92855      586.79949     -49138.937      13902.771     -35236.166      1.2167043      144159.02      52.399837      76.216385      36.096371      0.065860237   -9.2449809      0.11977489   
    431000   302.13454     -286.35905     -49029.708      13958.487     -35071.221      1.2167043      144159.02      52.399837      76.216385      36.096371      0.065860237   -9.2449809      0.11977489   
    432000   302.08098      428.56414     -49049.259      13956.013     -35093.246      1.2167043      144159.02      52.399837      76.216385      36.096371      0.065860237   -9.2449809      0.11977489   
    433000   298.56186      1191.7655     -49196.19       13793.431     -35402.759      1.2167043      144159.02      52.399837      76.216385      36.096371      0.065860237   -9.2449809      0.11977489   
    434000   301.77504      760.83559     -49118.654      13941.879     -35176.775      1.2167043      144159.02      52.399837      76.216385      36.096371      0.065860237   -9.2449809      0.11977489   
    435000   301.93075     -105.14819     -49142.733      13949.072     -35193.66       1.2167043      144159.02      52.399837      76.216385      36.096371      0.065860237   -9.2449809      0.11977489   
    436000   298.52402      464.10061     -49124.52       13791.683     -35332.837      1.2167043      144159.02      52.399837      76.216385      36.096371      0.065860237   -9.2449809      0.11977489   
    437000   302.0441       838.45353     -49052.378      13954.309     -35098.069      1.2167043      144159.02      52.399837      76.216385      36.096371      0.065860237   -9.2449809      0.11977489   
    438000   299.44031      238.01699     -49232.452      13834.015     -35398.437      1.2167043      144159.02      52.399837      76.216385      36.096371      0.065860237   -9.2449809      0.11977489   
    439000   302.46789      698.71344     -49107.878      13973.888     -35133.99       1.2167043      144159.02      52.399837      76.216385      36.096371      0.065860237   -9.2449809      0.11977489   
    440000   298.73909      751.59837     -48855.1        13801.619     -35053.481      1.2167043      144159.02      52.399837      76.216385      36.096371      0.065860237   -9.2449809      0.11977489   
    441000   298.65877      219.24293     -49120.346      13797.908     -35322.438      1.2167043      144159.02      52.399837      76.216385      36.096371      0.065860237   -9.2449809      0.11977489   
    442000   300.31763      574.05294     -49005.992      13874.547     -35131.445      1.2167043      144159.02      52.399837      76.216385      36.096371      0.065860237   -9.2449809      0.11977489   
    443000   300.06456      750.30604     -48938.647      13862.855     -35075.792      1.2167043      144159.02      52.399837      76.216385      36.096371      0.065860237   -9.2449809      0.11977489   
    444000   298.9045      -207.21112     -49023.785      13809.261     -35214.524      1.2167043      144159.02      52.399837      76.216385      36.096371      0.065860237   -9.2449809      0.11977489   
    445000   296.98139      88.851536     -49182.435      13720.414     -35462.021      1.2167043      144159.02      52.399837      76.216385      36.096371      0.065860237   -9.2449809      0.11977489   
    446000   301.33435      814.40803     -49109.288      13921.519     -35187.769      1.2167043      144159.02      52.399837      76.216385      36.096371      0.065860237   -9.2449809      0.11977489   
    447000   300.04916     -684.91053     -49030.269      13862.144     -35168.125      1.2167043      144159.02      52.399837      76.216385      36.096371      0.065860237   -9.2449809      0.11977489   
    448000   299.43542     -643.591       -49200.705      13833.789     -35366.916      1.2167043      144159.02      52.399837      76.216385      36.096371      0.065860237   -9.2449809      0.11977489   
    449000   300.11366     -678.74912     -49109.777      13865.124     -35244.653      1.2167043      144159.02      52.399837      76.216385      36.096371      0.065860237   -9.2449809      0.11977489   
    450000   301.49343     -1170.6969     -49015.206      13928.868     -35086.338      1.2167043      144159.02      52.399837      76.216385      36.096371      0.065860237   -9.2449809      0.11977489   
    451000   297.95458      240.75823     -49117.918      13765.375     -35352.543      1.2167043      144159.02      52.399837      76.216385      36.096371      0.065860237   -9.2449809      0.11977489   
    452000   301.48104     -95.244681     -49047.3        13928.296     -35119.004      1.2167043      144159.02      52.399837      76.216385      36.096371      0.065860237   -9.2449809      0.11977489   
    453000   302.56716     -330.80211     -49226.316      13978.474     -35247.841      1.2167043      144159.02      52.399837      76.216385      36.096371      0.065860237   -9.2449809      0.11977489   
    454000   297.66522      1029.7448     -49163.158      13752.006     -35411.152      1.2167043      144159.02      52.399837      76.216385      36.096371      0.065860237   -9.2449809      0.11977489   
    455000   299.78645      276.98857     -49045.193      13850.007     -35195.186      1.2167043      144159.02      52.399837      76.216385      36.096371      0.065860237   -9.2449809      0.11977489   
    456000   299.66097      361.08481     -49188.687      13844.209     -35344.477      1.2167043      144159.02      52.399837      76.216385      36.096371      0.065860237   -9.2449809      0.11977489   
    457000   299.85603     -666.01288     -49049.931      13853.221     -35196.709      1.2167043      144159.02      52.399837      76.216385      36.096371      0.065860237   -9.2449809      0.11977489   
    458000   300.5009      -254.35526     -49095.81       13883.014     -35212.796      1.2167043      144159.02      52.399837      76.216385      36.096371      0.065860237   -9.2449809      0.11977489   
    459000   295.87165     -604.32669     -49202.564      13669.145     -35533.42       1.2167043      144159.02      52.399837      76.216385      36.096371      0.065860237   -9.2449809      0.11977489   
    460000   301.87971     -1024.5978     -49138.044      13946.714     -35191.33       1.2167043      144159.02      52.399837      76.216385      36.096371      0.065860237   -9.2449809      0.11977489   
    461000   299.24702     -164.52491     -49147.965      13825.085     -35322.88       1.2167043      144159.02      52.399837      76.216385      36.096371      0.065860237   -9.2449809      0.11977489   
    462000   300.80694     -332.42525     -49152.175      13897.153     -35255.022      1.2167043      144159.02      52.399837      76.216385      36.096371      0.065860237   -9.2449809      0.11977489   
    463000   298.96507      312.29269     -49022.814      13812.059     -35210.755      1.2167043      144159.02      52.399837      76.216385      36.096371      0.065860237   -9.2449809      0.11977489   
    464000   300.79673      16.522586     -49247.352      13896.681     -35350.671      1.2167043      144159.02      52.399837      76.216385      36.096371      0.065860237   -9.2449809      0.11977489   
    465000   304.61638      372.37377     -49161.752      14073.147     -35088.605      1.2167043      144159.02      52.399837      76.216385      36.096371      0.065860237   -9.2449809      0.11977489   
    466000   299.84486      432.02386     -49060.459      13852.705     -35207.753      1.2167043      144159.02      52.399837      76.216385      36.096371      0.065860237   -9.2449809      0.11977489   
    467000   296.90556      5.5020509     -48993.426      13716.911     -35276.515      1.2167043      144159.02      52.399837      76.216385      36.096371      0.065860237   -9.2449809      0.11977489   
    468000   298.156        88.257116     -49053.545      13774.681     -35278.865      1.2167043      144159.02      52.399837      76.216385      36.096371      0.065860237   -9.2449809      0.11977489   
[...]
    516000   298.69377     -1125.1998     -49182.045      13799.525     -35382.52       1.2167043      144159.02      52.399837      76.216385      36.096371      0.065860237   -9.2449809      0.11977489   
    517000   301.64061      766.01634     -48953.878      13935.668     -35018.21       1.2167043      144159.02      52.399837      76.216385      36.096371      0.065860237   -9.2449809      0.11977489   
    518000   298.37743      43.102622     -49008.807      13784.91      -35223.896      1.2167043      144159.02      52.399837      76.216385      36.096371      0.065860237   -9.2449809      0.11977489   
    519000   302.97757     -328.49612     -49216.543      13997.435     -35219.109      1.2167043      144159.02      52.399837      76.216385      36.096371      0.065860237   -9.2449809      0.11977489   
    520000   299.48546      486.40185     -49061.934      13836.101     -35225.834      1.2167043      144159.02      52.399837      76.216385      36.096371      0.065860237   -9.2449809      0.11977489   
    521000   300.34485     -124.23311     -49237.053      13875.804     -35361.249      1.2167043      144159.02      52.399837      76.216385      36.096371      0.065860237   -9.2449809      0.11977489   
    522000   301.12641     -657.74968     -49149.138      13911.912     -35237.226      1.2167043      144159.02      52.399837      76.216385      36.096371      0.065860237   -9.2449809      0.11977489   
    523000   301.53417     -728.33019     -49094.592      13930.751     -35163.841      1.2167043      144159.02      52.399837      76.216385      36.096371      0.065860237   -9.2449809      0.11977489   
    524000   298.50437     -1253.6878     -49213.988      13790.775     -35423.212      1.2167043      144159.02      52.399837      76.216385      36.096371      0.065860237   -9.2449809      0.11977489   
    525000   299.70561      616.77941     -49205.769      13846.272     -35359.497      1.2167043      144159.02      52.399837      76.216385      36.096371      0.065860237   -9.2449809      0.11977489   
    526000   304.93359     -86.653467     -49122.718      14087.802     -35034.915      1.2167043      144159.02      52.399837      76.216385      36.096371      0.065860237   -9.2449809      0.11977489   
    527000   301.50429     -294.52152     -49056.777      13929.37      -35127.407      1.2167043      144159.02      52.399837      76.216385      36.096371      0.065860237   -9.2449809      0.11977489   
    528000   301.37855     -83.244246     -49044.526      13923.561     -35120.966      1.2167043      144159.02      52.399837      76.216385      36.096371      0.065860237   -9.2449809      0.11977489   
    529000   300.30753     -472.19646     -49019.102      13874.08      -35145.022      1.2167043      144159.02      52.399837      76.216385      36.096371      0.065860237   -9.2449809      0.11977489   
    530000   301.54872     -21.087484     -49220.898      13931.423     -35289.475      1.2167043      144159.02      52.399837      76.216385      36.096371      0.065860237   -9.2449809      0.11977489   
    531000   303.12524     -92.289742     -49084.056      14004.257     -35079.799      1.2167043      144159.02      52.399837      76.216385      36.096371      0.065860237   -9.2449809      0.11977489   
    532000   301.98281     -307.85758     -49070.256      13951.478     -35118.778      1.2167043      144159.02      52.399837      76.216385      36.096371      0.065860237   -9.2449809      0.11977489   
    533000   298.39227     -94.51287      -49181.036      13785.596     -35395.44       1.2167043      144159.02      52.399837      76.216385      36.096371      0.065860237   -9.2449809      0.11977489   
    534000   302.43674      157.43607     -49236.159      13972.449     -35263.71       1.2167043      144159.02      52.399837      76.216385      36.096371      0.065860237   -9.2449809      0.11977489   
    535000   302.43389      269.00906     -49100.196      13972.317     -35127.879      1.2167043      144159.02      52.399837      76.216385      36.096371      0.065860237   -9.2449809      0.11977489   
    536000   299.48062     -387.97003     -48997.604      13835.878     -35161.727      1.2167043      144159.02      52.399837      76.216385      36.096371      0.065860237   -9.2449809      0.11977489   
    537000   298.0021       222.21913     -49070.364      13767.57      -35302.794      1.2167043      144159.02      52.399837      76.216385      36.096371      0.065860237   -9.2449809      0.11977489   
    538000   298.40555     -167.48029     -49020.878      13786.21      -35234.669      1.2167043      144159.02      52.399837      76.216385      36.096371      0.065860237   -9.2449809      0.11977489   
    539000   298.7402      -9.9618834     -49152.848      13801.67      -35351.178      1.2167043      144159.02      52.399837      76.216385      36.096371      0.065860237   -9.2449809      0.11977489   
    540000   301.35471      230.26027     -49129.111      13922.459     -35206.652      1.2167043      144159.02      52.399837      76.216385      36.096371      0.065860237   -9.2449809      0.11977489   
    541000   298.35961      47.005636     -49073.081      13784.087     -35288.994      1.2167043      144159.02      52.399837      76.216385      36.096371      0.065860237   -9.2449809      0.11977489   
    542000   298.74326     -612.77235     -49238.186      13801.812     -35436.374      1.2167043      144159.02      52.399837      76.216385      36.096371      0.065860237   -9.2449809      0.11977489   
    543000   296.45293      146.70922     -49006.404      13695.999     -35310.405      1.2167043      144159.02      52.399837      76.216385      36.096371      0.065860237   -9.2449809      0.11977489   
    544000   302.31223      832.64642     -49060.208      13966.696     -35093.511      1.2167043      144159.02      52.399837      76.216385      36.096371      0.065860237   -9.2449809      0.11977489   
    545000   299.59669      370.25131     -49308.594      13841.24      -35467.355      1.2167043      144159.02      52.399837      76.216385      36.096371      0.065860237   -9.2449809      0.11977489   
    546000   301.03222      1185.2463     -49084.909      13907.561     -35177.349      1.2167043      144159.02      52.399837      76.216385      36.096371      0.065860237   -9.2449809      0.11977489   
    547000   298.05897      132.11296     -49049.863      13770.198     -35279.665      1.2167043      144159.02      52.399837      76.216385      36.096371      0.065860237   -9.2449809      0.11977489   
    548000   301.96456      440.17221     -48973.757      13950.634     -35023.123      1.2167043      144159.02      52.399837      76.216385      36.096371      0.065860237   -9.2449809      0.11977489   
    549000   299.73887     -471.87074     -49044.871      13847.809     -35197.063      1.2167043      144159.02      52.399837      76.216385      36.096371      0.065860237   -9.2449809      0.11977489   
    550000   298.37277      183.13294     -49280.365      13784.695     -35495.67       1.2167043      144159.02      52.399837      76.216385      36.096371      0.065860237   -9.2449809      0.11977489   
    551000   300.20975      118.65386     -49072.53       13869.563     -35202.967      1.2167043      144159.02      52.399837      76.216385      36.096371      0.065860237   -9.2449809      0.11977489   
    552000   297.92048     -141.13695     -49200.868      13763.8       -35437.068      1.2167043      144159.02      52.399837      76.216385      36.096371      0.065860237   -9.2449809      0.11977489   
    553000   301.27385      93.675913     -49124.261      13918.724     -35205.536      1.2167043      144159.02      52.399837      76.216385      36.096371      0.065860237   -9.2449809      0.11977489   
    554000   300.30865      207.14838     -48919.46       13874.132     -35045.328      1.2167043      144159.02      52.399837      76.216385      36.096371      0.065860237   -9.2449809      0.11977489   
    555000   301.43521     -552.67322     -49251.007      13926.179     -35324.829      1.2167043      144159.02      52.399837      76.216385      36.096371      0.065860237   -9.2449809      0.11977489   
    556000   298.63291     -348.68151     -49052.572      13796.714     -35255.858      1.2167043      144159.02      52.399837      76.216385      36.096371      0.065860237   -9.2449809      0.11977489   
    557000   300.91754      96.042398     -49021.887      13902.262     -35119.624      1.2167043      144159.02      52.399837      76.216385      36.096371      0.065860237   -9.2449809      0.11977489   
    558000   300.92462     -476.96378     -49123.517      13902.59      -35220.927      1.2167043      144159.02      52.399837      76.216385      36.096371      0.065860237   -9.2449809      0.11977489   
    559000   294.82382      395.48048     -49072.748      13620.735     -35452.013      1.2167043      144159.02      52.399837      76.216385      36.096371      0.065860237   -9.2449809      0.11977489   
    560000   302.72816      534.94628     -49052.73       13985.912     -35066.818      1.2167043      144159.02      52.399837      76.216385      36.096371      0.065860237   -9.2449809      0.11977489   
    561000   300.71802      51.666677     -49240.169      13893.045     -35347.125      1.2167043      144159.02      52.399837      76.216385      36.096371      0.065860237   -9.2449809      0.11977489   
    562000   303.38739     -1089.2911     -49139.49       14016.368     -35123.121      1.2167043      144159.02      52.399837      76.216385      36.096371      0.065860237   -9.2449809      0.11977489   
    563000   302.42995     -306.33196     -49178.162      13972.135     -35206.027      1.2167043      144159.02      52.399837      76.216385      36.096371      0.065860237   -9.2449809      0.11977489   
    564000   302.02228     -683.22832     -49200.996      13953.301     -35247.695      1.2167043      144159.02      52.399837      76.216385      36.096371      0.065860237   -9.2449809      0.11977489   
    565000   300.47974     -152.48427     -49002.298      13882.036     -35120.261      1.2167043      144159.02      52.399837      76.216385      36.096371      0.065860237   -9.2449809      0.11977489   
    566000   301.78854     -863.43199     -49182.714      13942.502     -35240.212      1.2167043      144159.02      52.399837      76.216385      36.096371      0.065860237   -9.2449809      0.11977489   
    567000   299.7169       9.1356593     -49152.948      13846.793     -35306.155      1.2167043      144159.02      52.399837      76.216385      36.096371      0.065860237   -9.2449809      0.11977489   
    568000   301.74513     -264.21762     -48925.019      13940.497     -34984.522      1.2167043      144159.02      52.399837      76.216385      36.096371      0.065860237   -9.2449809      0.11977489   
    569000   301.0461       1064.6665     -49270.344      13908.202     -35362.142      1.2167043      144159.02      52.399837      76.216385      36.096371      0.065860237   -9.2449809      0.11977489   
    570000   300.65863      21.800342     -49128          13890.301     -35237.699      1.2167043      144159.02      52.399837      76.216385      36.096371      0.065860237   -9.2449809      0.11977489   
    571000   300.50368      824.0527      -49128.698      13883.142     -35245.556      1.2167043      144159.02      52.399837      76.216385      36.096371      0.065860237   -9.2449809      0.11977489   
    572000   298.70581     -203.72352     -48998.198      13800.081     -35198.116      1.2167043      144159.02      52.399837      76.216385      36.096371      0.065860237   -9.2449809      0.11977489   
    573000   299.09232      76.161988     -49224.119      13817.938     -35406.181      1.2167043      144159.02      52.399837      76.216385      36.096371      0.065860237   -9.2449809      0.11977489   
    574000   301.78963      367.07078     -49108.966      13942.553     -35166.413      1.2167043      144159.02      52.399837      76.216385      36.096371      0.065860237   -9.2449809      0.11977489   
    575000   302.24538     -531.95339     -49068.235      13963.608     -35104.627      1.2167043      144159.02      52.399837      76.216385      36.096371      0.065860237   -9.2449809      0.11977489   
    576000   300.08333     -43.70561      -48943.47       13863.722     -35079.747      1.2167043      144159.02      52.399837      76.216385      36.096371      0.065860237   -9.2449809      0.11977489   
    577000   298.86699     -261.95949     -49267.102      13807.528     -35459.574      1.2167043      144159.02      52.399837      76.216385      36.096371      0.065860237   -9.2449809      0.11977489   
    578000   299.94241     -259.25385     -49022.528      13857.212     -35165.316      1.2167043      144159.02      52.399837      76.216385      36.096371      0.065860237   -9.2449809      0.11977489   
    579000   303.39659     -570.54426     -49040.552      14016.794     -35023.758      1.2167043      144159.02      52.399837      76.216385      36.096371      0.065860237   -9.2449809      0.11977489   
    580000   302.38083      348.10099     -49090.506      13969.866     -35120.64       1.2167043      144159.02      52.399837      76.216385      36.096371      0.065860237   -9.2449809      0.11977489   
    581000   298.44721     -765.2039      -49079.7        13788.134     -35291.566      1.2167043      144159.02      52.399837      76.216385      36.096371      0.065860237   -9.2449809      0.11977489   
    582000   304.69543      32.353596     -48924.104      14076.8       -34847.304      1.2167043      144159.02      52.399837      76.216385      36.096371      0.065860237   -9.2449809      0.11977489   
    583000   298.34458      60.180773     -49024.694      13783.393     -35241.301      1.2167043      144159.02      52.399837      76.216385      36.096371      0.065860237   -9.2449809      0.11977489   
    584000   299.78914      526.57744     -49161.697      13850.131     -35311.566      1.2167043      144159.02      52.399837      76.216385      36.096371      0.065860237   -9.2449809      0.11977489   
    585000   300.87385      296.40088     -49299.338      13900.244     -35399.093      1.2167043      144159.02      52.399837      76.216385      36.096371      0.065860237   -9.2449809      0.11977489   
    586000   300.55153     -142.79822     -49105.03       13885.353     -35219.677      1.2167043      144159.02      52.399837      76.216385      36.096371      0.065860237   -9.2449809      0.11977489   
    587000   298.40884      264.12137     -49193.784      13786.361     -35407.422      1.2167043      144159.02      52.399837      76.216385      36.096371      0.065860237   -9.2449809      0.11977489   
    588000   300.96916     -301.07931     -49082.611      13904.647     -35177.964      1.2167043      144159.02      52.399837      76.216385      36.096371      0.065860237   -9.2449809      0.11977489   
    589000   296.22032     -181.66999     -49158.463      13685.253     -35473.21       1.2167043      144159.02      52.399837      76.216385      36.096371      0.065860237   -9.2449809      0.11977489   
    590000   300.47613      630.61836     -49124.862      13881.87      -35242.992      1.2167043      144159.02      52.399837      76.216385      36.096371      0.065860237   -9.2449809      0.11977489   
    591000   300.67332      260.21951     -49039.846      13890.98      -35148.866      1.2167043      144159.02      52.399837      76.216385      36.096371      0.065860237   -9.2449809      0.11977489   
    592000   299.97986      1053.09       -49177.91       13858.942     -35318.968      1.2167043      144159.02      52.399837      76.216385      36.096371      0.065860237   -9.2449809      0.11977489   
    593000   298.5422       475.55743     -49072.221      13792.523     -35279.699      1.2167043      144159.02      52.399837      76.216385      36.096371      0.065860237   -9.2449809      0.11977489   
    594000   301.57697      444.88882     -48952.504      13932.728     -35019.776      1.2167043      144159.02      52.399837      76.216385      36.096371      0.065860237   -9.2449809      0.11977489   
    595000   302.15827     -432.42335     -49098.029      13959.584     -35138.445      1.2167043      144159.02      52.399837      76.216385      36.096371      0.065860237   -9.2449809      0.11977489   
    596000   300.70275      915.60984     -49152.14       13892.339     -35259.801      1.2167043      144159.02      52.399837      76.216385      36.096371      0.065860237   -9.2449809      0.11977489   
    597000   300.91146      614.00453     -49161.513      13901.981     -35259.532      1.2167043      144159.02      52.399837      76.216385      36.096371      0.065860237   -9.2449809      0.11977489   
    598000   299.0367      -289.62326     -48899.6        13815.368     -35084.232      1.2167043      144159.02      52.399837      76.216385      36.096371      0.065860237   -9.2449809      0.11977489   
    599000   301.02528      217.16485     -49100.953      13907.24      -35193.713      1.2167043      144159.02      52.399837      76.216385      36.096371      0.065860237   -9.2449809      0.11977489   
    600000   304.95944      84.608216     -49049.049      14088.996     -34960.052      1.2167043      144159.02      52.399837      76.216385      36.096371      0.065860237   -9.2449809      0.11977489   
Loop time of 48600.9 on 1 procs for 500000 steps with 16000 atoms

Performance: 0.889 ns/day, 27.001 hours/ns, 10.288 timesteps/s, 164.606 katom-step/s
99.8% CPU use with 1 MPI tasks x 1 OpenMP threads

MPI task timing breakdown:
Section |  min time  |  avg time  |  max time  |%varavg| %total
---------------------------------------------------------------
Pair    | 37495      | 37495      | 37495      |   0.0 | 77.15
Bond    | 1278.5     | 1278.5     | 1278.5     |   0.0 |  2.63
Kspace  | 2645.8     | 2645.8     | 2645.8     |   0.0 |  5.44
Neigh   | 6860.3     | 6860.3     | 6860.3     |   0.0 | 14.12
Comm    | 78.646     | 78.646     | 78.646     |   0.0 |  0.16
Output  | 2.3229     | 2.3229     | 2.3229     |   0.0 |  0.00
Modify  | 205.12     | 205.12     | 205.12     |   0.0 |  0.42
Other   |            | 35.64      |            |       |  0.07

Nlocal:          16000 ave       16000 max       16000 min
Histogram: 1 0 0 0 0 0 0 0 0 0
Nghost:          34096 ave       34096 max       34096 min
Histogram: 1 0 0 0 0 0 0 0 0 0
Neighs:    6.43618e+06 ave 6.43618e+06 max 6.43618e+06 min
Histogram: 1 0 0 0 0 0 0 0 0 0

Total # of neighbors = 6436183
Ave neighs/atom = 402.26144
Ave special neighs/atom = 8.75
Neighbor list builds = 21455
Dangerous builds = 0
unfix nvt_prod

# --- 结束 ---
undump traj
unfix shake_water

write_data final_prod.data
System init for write_data ...
PPPM initialization ...
  using 12-bit tables for long-range coulomb (src/kspace.cpp:342)
  G vector (1/distance) = 0.251564
  grid = 24 30 20
  stencil order = 5
  estimated absolute RMS force accuracy = 0.018449834
  estimated relative force accuracy = 5.5561127e-05
  using double precision FFTW3
  3d grid and FFT values/proc = 27405 14400
Generated 45 of 45 mixed pair_coeff terms from arithmetic mixing rule
write_restart final_prod.restart
System init for write_restart ...
PPPM initialization ...
  using 12-bit tables for long-range coulomb (src/kspace.cpp:342)
  G vector (1/distance) = 0.251564
  grid = 24 30 20
  stencil order = 5
  estimated absolute RMS force accuracy = 0.018449834
  estimated relative force accuracy = 5.5561127e-05
  using double precision FFTW3
  3d grid and FFT values/proc = 27405 14400
Generated 45 of 45 mixed pair_coeff terms from arithmetic mixing rule
Total wall time: 13:30:01
